Composition,Density
K1 Fe2 As2,4.960691158678031
K1 Fe2 P2,3.871045699596429
K1 Fe2 S2,4.074154778309566
K1 Fe2 Se2,4.804538531009527
K1 Fe2 Te2,5.472822017171168
K1 Ga1,2.4523270182220904
K1 Ga1 Te2,3.956383249895635
K1 Gd1 O2,5.554200833141858
K1 Gd1 O3,4.570568612103092
K1 Gd1 S2,4.064160266509277
K1 Gd1 Te2,5.116239913272209
K1 Ge1,2.339447600554409
K1 Ge1 Br3,3.322678412891685
K1 Ge1 Cl3,2.3670398921308373
K1 Ge1 N1,3.9832135960548936
K1 H1,1.4412285931854134
K1 H1 F2,2.303840489899668
K1 H1 O1,2.074746249839339
K1 H1 S1,1.663098471143755
K1 H2 N1,1.6548367477087478
K1 H3,1.2876919667194788
K1 Hf1 Cu3 Se4,5.029851573966237
K1 Hf1 Mg6,2.91532677349884
K1 Hf1 Ni1,6.705267410456573
K1 Hf1 O3,6.047336441525025
K1 Hg1,4.967016325346754
K1 Hg1 As1,5.507569277005889
K1 Hg1 F3,5.05758662629168
K1 Hg1 Sb1,5.502823332572722
K1 Hg2,7.097527233874118
K1 Hg2 B1,7.715345058044194
K1 Hg2 Bi1,0.689344305502054
K1 Hg3,8.168823537486567
K1 Ho1 O2,6.040057733041698
K1 Ho1 O3,4.754423171005628
K1 Ho1 S2,4.286958975688253
K1 I1,2.971385142055772
K1 I1 O2,4.314840263972216
K1 I1 O3,3.8199479302959625
K1 In1 N1,3.425678460942332
K1 In1 O2,5.098025303747787
K1 In1 O3,4.192360054844873
K1 In1 Se2,3.737070599782652
K1 In1 Te2,4.728224743736314
K1 In2 Ga2,5.009831498109831
K1 In3,5.320030218744051
K1 In4,5.220521060120315
K1 La1 Au2,0.7112096618048956
K1 La1 Cu2 O4,5.359782845590583
K1 La1 F4,3.974804240669296
K1 La1 O2,4.590395371184826
K1 La1 S2,3.4112839962897583
K1 La1 Te2,4.529483333709461
K1 La3,4.657234117830166
K1 Li1 I1 Cl1,2.711788861388788
K1 Li1 Mn1 S2,2.499548090785788
K1 Li1 O3,2.3528001362383453
K1 Li1 S1,1.8582222774002928
K1 Li1 Se1,2.765962318226664
K1 Li1 Te1,3.1346404169301105
K1 Li1 Zn1 S2,2.759771040667913
K1 Li1 Zn3 O4,4.363692803321864
K1 Li2 As1,2.224353471975493
K1 Li3,0.7652276551222398
K1 Lu1,4.478142355078572
K1 Lu1 O2,6.57467164853666
K1 Lu1 O3,5.194363902990446
K1 Lu1 S2,4.609769702579187
K1 Mg1 As1,2.7899713309254297
K1 Mg1 Bi1,4.3635660112972925
K1 Mg1 F3,3.0019056150266654
K1 Mg1 H3,1.2637393356420887
K1 Mg1 N1,2.271575692899324
K1 Mg1 O3,2.630359618747925
K1 Mg1 P1,2.047951020668009
K1 Mg1 Sb1,3.134764931461824
K1 Mg3,1.5572752031874175
K1 Mg3 O4,3.1228600105626367
K1 Mg6 Mo1,2.465857811331381
K1 Mg6 Nb1,2.3426797203394263
K1 Mg6 Ni1,1.9387933459593527
K1 Mg6 Sb1,2.449135449866834
K1 Mg6 Si1,1.6526894608531049
K1 Mg6 Sn1,2.3754796915872736
K1 Mg6 Ti1,1.893264068730592
K1 Mg6 V1,1.9237367253710096
K1 Mg6 W1,3.2534337557136097
K1 Mg6 Zn1,1.9531286742592848
K1 Mg6 Zr1,2.1874740386688547
K1 Mn1 As1,3.681401900788781
K1 Mn1 Bi1,5.1865080025667245
K1 Mn1 Cl1,2.077541245728572
K1 Mn1 Cu3 Se4,4.48135368759548
K1 Mn1 F3,3.2433567016178326
K1 Mn1 N1,2.673090488945004
K1 Mn1 O2,3.008239249273566
K1 Mn1 O3,3.809040682836771
K1 Mn1 P1,2.7540037693834223
K1 Mn1 Ru1,4.65245870180096
K1 Mn1 Sb1,3.961367163118896
K1 Mn1 Se2,3.8647575301139647
K1 Mn1 Te2,4.305244073791642
K1 Mn2 O4,3.546997493970072
K1 Mo1 O3,4.731924392171149
K1 Mo1 Ru2,8.441561304474702
K1 N1,1.7980350585110731
K1 N1 O2,1.7429111851724073
K1 N1 O3,1.854420144520805
K1 N2,1.7455261148557784
K1 N3,1.0508778414660755
K1 Na1 Cl2,2.014546287198025
K1 Na1 H2,1.393336406511905
K1 Na1 Hg2,0.4891595810297792
K1 Na1 I1 Cl1,2.6866134979370737
K1 Na1 O1,2.509714132213334
K1 Na1 O3,2.088814888455919
K1 Na1 Sb1,2.7237542628661644
K1 Na1 Se1,2.6832678749083008
K1 Na2 As1,0.1531091771694827
K1 Na2 B1 N2,2.181667813151634
K1 Na2 Bi1,3.843690943420775
K1 Na2 Cu1 O2,2.843575562112736
K1 Na2 P1,0.1017716162070806
K1 Na2 Pb1,0.3424847871945752
K1 Na2 Sb1,2.8904264392064976
K1 Na2 Tl1,0.2416700668348954
K1 Na3 H4,1.3879961065282018
K1 Nb1 Cl6,2.009333906194372
K1 Nb1 O2 F1,4.274370196179917
K1 Nb1 O3,4.360499900625998
K1 Nb1 S2,3.9659895573824295
K1 Nb1 Se2,5.134904131363613
K1 Nb2 Se1,6.540964753976945
K1 Nd1,3.500494144466626
K1 Nd1 O2,4.9158607942380135
K1 Nd1 S2,3.629265911696611
K1 Nd1 Te2,4.7560468829996285
K1 Nd3,5.001341531681658
K1 Ni1 F3,3.8147421194497246
K1 Ni1 I1 O6,3.987068432551869
K1 Ni1 N1,2.961170601875911
K1 Ni1 Sb1 O4,4.5033255452804895
K1 Ni1 Te1 O6,3.924727563973437
K1 Ni2 S2,4.018926765798113
K1 Ni2 Se2,5.113709257709927
K1 O2,0.5153763341974887
K1 O2 F1,2.2261923014099123
K1 O3,1.8491200223506048
K1 Os1 F6,4.360236120589284
K1 Os1 O3,7.580164649281197
K1 P1,1.52546522241841
K1 P1 F6,2.4999414230042527
K1 P1 H2 S1 O3,2.107766698104429
K1 P2 Ir2,7.797078669436298
K1 P2 Rh2,4.947133009563668
K1 P2 Ru2,4.823698752218254
K1 Pb1 N1,4.899361692640886
K1 Pb1 O3,5.893054640887403
K1 Pb3,8.264023811552583
K1 Pd1 F3,4.20238862870112
K1 Pd1 N1,3.175552899229664
K1 Pd1 O3,4.766060397742008
K1 Pm1,3.5430930769437725
K1 Pm3,5.16490667139852
K1 Pr1 O2,4.745768222924879
K1 Pr1 S2,3.5294224504427207
K1 Pr1 Te2,4.659038787927928
K1 Pr3,4.662032856944204
K1 Pt1,9.32765617321921
K1 Pt1 N1,6.380550041305062
K1 Pt1 O3,7.072388646410466
K1 Pt3,12.26476260615144
K1 Rb1 Au2,0.5693640973295062
K1 Rb1 Cl2,2.311900756718781
K1 Rb1 Hg2,0.479006178711187
K1 Rb1 Mn1 F6,3.125463651694924
K1 Rb1 Na2,0.1097199722050012
K1 Rb1 O1,3.02128542244726
K1 Rb1 O3,2.2888242955632343
K1 Rb2 Na1,0.1288999073123344
K1 Rb3,1.4072047061488029
K1 Re1 O3,7.425354016710841
K1 Rh1 F6,3.546867612286649
K1 Rh1 O3,4.961051500094684
K1 Ru1 F6,3.2380616323497016
K1 Ru1 N1,4.023991030920693
K1 Ru1 O3,5.111423239827205
K1 S1,0.2996959481817814
K1 Sb1 O2,3.98266536384063
K1 Sb1 S2,2.9967722215794383
K1 Sb2,4.229756375907083
K1 Sb3,5.169238848000679
K1 Sc1 O2,3.423675706009352
K1 Sc1 O3,2.937283325962221
K1 Sc2 Co1,3.422112407806747
K1 Se1,2.554920948508089
K1 Se3,3.1251688928589383
K1 Si1,1.4320632796431372
K1 Si1 O3,3.8282528080017295
K1 Si1 Tc2,6.547808510855137
K1 Si2 Hg1,5.225568832807192
K1 Si4 Pd4,5.772180529823826
K1 Si4 Pt4,9.260557715572142
K1 Sm1,3.7316655826641294
K1 Sm1 O2,5.257502191373897
K1 Sm1 S2,3.829882097927534
K1 Sm1 Se2,4.677634736845011
K1 Sm1 Te2,4.927868015789076
K1 Sm3,5.3404743336842815
K1 Sn1 As1,3.940265654527008
K1 Sn1 N1,3.2928158363297504
K1 Sn1 Os1,7.6698557251555215
K1 Sn1 S2,3.510335288214366
K1 Sn1 Sb1,4.077147061866659
K1 Sn1 Se2,4.290612372350387
K1 Sn2 F5,3.765144054548432
K1 Sn3,5.070054313931715
K1 Sr1 Bi2 O5,6.717761977540448
K1 Sr1 C1 O3 F1,2.9304266932243856
K1 Sr1 Mg6,1.830168037753332
K1 Sr1 N1,2.414998399746153
K1 Sr1 O3,2.548217758597212
K1 Sr1 Sb1,3.390248523192748
K1 Sr3,2.1370756060283345
K1 Ta1 O3,6.796251592212529
K1 Ta1 Pt1,10.149440728637192
K1 Tb1 O3,4.498615826795687
K1 Tb1 S2,4.113170032885765
K1 Tc1 O3,5.049775620421871
K1 Te1,3.207599395777941
K1 Te1 Au1,6.109467085660064
K1 Te1 O3,5.11867290592566
K1 Te1 O5,3.3309719911814355
K1 Te3,5.454540044843296
K1 Ti1 Cu3 Se4,4.384567951948265
K1 Ti1 O2 F1,3.6448228141022456
K1 Ti1 O3,2.851449774143137
K1 Ti1 S2,2.949823503487018
K1 Ti2 Bi1,6.273919226354933
K1 Tl1,4.770764090083162
K1 Tl1 Hg2,0.7861879628033146
K1 Tl1 O1,5.793272210401877
K1 Tl1 O2,6.951055693812279
K1 Tl1 O3,5.64092930918647
K1 Tl1 Se2,5.443051524337029
K1 Tl2 Bi1,7.961601931390566
K1 Tl2 Pb1,0.6566737661778806
K1 Tl3,7.443493181528094
K1 Tm1,4.303985433556982
K1 Tm1 O2,6.2937960310961225
K1 Tm1 O3,4.94891881514753
K1 V1 Cu3 Se4,4.413800795163044
K1 V1 F3,3.236477071913641
K1 V1 O2,3.859044125715633
K1 V1 O3,4.006977597551768
K1 V2 S4,2.86886470158387
K1 W1 O3,6.940053084185971
K1 Y1,2.5431035466277394
K1 Y1 Cu2 O4,4.899746556596155
K1 Y1 O2,4.017324737723685
K1 Y1 O3,3.2124885717965657
K1 Y1 S2,3.0284297870036307
K1 Y1 Sn1,3.833820377633824
K1 Y1 Te2,4.392357663021169
K1 Yb1 O2,6.223822758362563
K1 Yb1 O3,4.795359733483868
K1 Yb1 S2,4.211758256413318
K1 Yb1 Se2,5.024860803647205
K1 Yb3,4.913625674041559
K1 Zn1 As1,3.6025381087044623
K1 Zn1 Cu1 Te2,5.030748231220945
K1 Zn1 F3,3.802593253959647
K1 Zn1 O3,3.7053362075224703
K1 Zn1 P1,2.993857571949882
K1 Zn1 Sb1,3.816814770713926
K1 Zn2 B1 Cl2 O3,2.530801013102654
K1 Zn4 P3,4.003710089739673
K1 Zr1 Cu3 Se4,4.41555520685564
K1 Zr1 O3,3.889375724926838
K1 Zr1 S2,3.525033652208396
K1 Zr2 Nb1,5.552046780426567
K2 Ag1,2.536699425771011
K2 Ag1 As1,3.4991767400271727
K2 Ag1 Au1,0.4365925441758551
K2 Ag1 Bi1,4.407316797226566
K2 Ag1 P1,3.092661285189816
K2 Ag1 Sb1,3.617116148646271
K2 Al1 F5,2.4309329461890123
K2 Au3,7.818321568490297
K2 Ba1 Sn1 Te4,4.45127624441779
K2 Bi1 Au1,5.446885147855588
K2 Bi2 O5,5.805555112500639
K2 Br1 Cl1,2.298095048170723
K2 C1,1.609180274833378
K2 C1 N2,2.096868964631704
K2 Ca1 Pr1 O4,3.770128799526917
K2 Cd1 As2,2.9403225244678297
K2 Cd1 Au1,0.3871351820676227
K2 Cd1 Pb1,4.072717097793799
K2 Cd1 Sb2,3.612095609901701
K2 Cd1 Sn1,3.2787646131034625
K2 Cd1 Sn1 Se4,4.277105708118633
K2 Cd2 Cu1 S2 O2,3.668425859808497
K2 Ce1 Cu2 S4,3.833155054299625
K2 Ce1 F6,3.848112585021505
K2 Co1 F4,3.146640290131847
K2 Co1 F6,2.850278628495738
K2 Cr1 F6,2.8027355253548003
K2 Cu1 As1,3.1512412315077283
K2 Cu1 Br2 F2,3.35970589784426
K2 Cu1 Cl2 F2,2.573424184303408
K2 Cu1 Cl4 O2,2.2780699140886127
K2 Cu1 F4,3.2469115881362285
K2 Cu1 H4,2.4374650526948884
K2 Cu1 I2 F2,3.417154303551918
K2 Cu1 I2 O1,3.599759829376992
K2 Cu1 Ni2 S2 O2,3.7386238655647337
K2 Cu1 O2,3.248805251261003
K2 Cu1 P1,2.692751492451476
K2 Cu1 Sb1,3.3110585868191165
K2 Fe2 Se1 S3,2.983935773146192
K2 Ge1 F6,3.212549696853457
K2 H4 Pd1,2.3371233455202187
K2 H4 Pt1,3.4918141855589546
K2 H6 Pt1,3.3445888774589063
K2 Hf1 F6,3.6627351872463776
K2 Hg1 Au1,0.5356914781144544
K2 Hg1 O2,4.566165455379038
K2 Hg1 Se1,0.4691883269596572
K2 Hg1 Te1,0.4755504853572886
K2 Hg7,8.494735057000101
K2 Ir1 F6,4.47959585226191
K2 Ir1 N2,4.596073048507437
K2 Li1 S2,0.9342955619958656
K2 Li1 Se2,2.126779146555431
K2 Li1 Te2,0.1697821167585613
K2 Li2 Cu1 Br2 O2,2.8743785728662408
K2 Li2 Cu1 I2 O2,3.610688052029423
K2 Mg1 As2,2.170612929557971
K2 Mg1 Cl4,2.0548257676308666
K2 Mg1 F4,2.7269565945971626
K2 Mg1 H4,1.5846926742491134
K2 Mg1 P2,1.4868482217967125
K2 Mn1 As2,2.810270355150404
K2 Mn1 Bi2,3.6405447718221433
K2 Mn1 Cl6,2.3642266242211174
K2 Mn1 F4,2.8565447548124703
K2 Mn1 F6,2.8027708101926647
K2 Mn1 P2,2.149741508442549
K2 Mo1 Cl6,2.5440032903530274
K2 Na1 As1,2.1900576439254134
K2 Na1 Cd1,0.1668200213174339
K2 Na1 Cl3,1.936922560304672
K2 Na1 Hg1,0.2511597578082671
K2 Na1 O2,0.800458086539772
K2 Nb1 O3 F1,3.5209345091915
K2 Nb1 O6,2.8164412547182973
K2 Ni1 F4,3.2255773850420653
K2 Ni1 F6,2.97873706178309
K2 Ni1 O2,2.704489399972858
K2 O1,1.710173392313894
K2 O2,2.312132547633942
K2 Os1 Br6,4.252865942616407
K2 Os1 Cl4 O2,3.200370892556848
K2 Os1 Cl6,3.2169072313728195
K2 Os1 O6,3.5683327523266004
K2 P1 Au1,4.359134176734822
K2 Pb1 O6,3.7131627235400737
K2 Pd1,2.6042859233366604
K2 Pd1 Br1 Cl3,2.7263197002594066
K2 Pd1 Br3 Cl1,3.140649133258201
K2 Pd1 Br4,3.3077934811482894
K2 Pd1 Br6,3.719601148674218
K2 Pd1 C2,2.808604032000226
K2 Pd1 Cl4,2.514639403193976
K2 Pd1 Cl6,2.648031660891656
K2 Pd1 F4,3.324905810630745
K2 Pd1 F6,3.3730151954064507
K2 Pd1 O2,4.226372607814337
K2 Pd1 S2,3.28632134909703
K2 Pd1 Se2,4.029794830293775
K2 Pt1,4.038230474003732
K2 Pt1 Br4,3.906929296182404
K2 Pt1 Br6,3.529110906190611
K2 Pt1 C2,4.048710376380808
K2 Pt1 Cl4,3.2033758887886368
K2 Pt1 Cl6,3.236573034468895
K2 Pt1 F6,4.476146353326344
K2 Pt1 O6,3.4777020474196667
K2 Pt1 S2,4.476082669317864
K2 Pt1 S6,2.123732886143136
K2 Pt1 Se2,5.093527262328543
K2 Rb1 As1,0.1648895531659159
K2 Rb1 Bi1,0.2505304381448838
K2 Rb1 Na1,0.1002717652389145
K2 Rb1 Pt1,3.713670510786502
K2 Rb1 Sb1,2.926045686026689
K2 Re1,3.474894357018945
K2 Re1 Br6,4.048743483446642
K2 Re1 Cl6,3.073018572028728
K2 Re1 F6,4.327652619563903
K2 Rh1 F6,3.47638325082486
K2 Rh2 O5,4.5783618870457214
K2 Ru1 Cl6,2.6814980562030235
K2 S1,1.7608207764138026
K2 Sb1 Au1,4.695916457507283
K2 Se1,2.236225841283315
K2 Se1 Br6,3.435450098493192
K2 Si1 F6,2.6060234198707493
K2 Si2 Pb2 O1,5.238488363200943
K2 Sn1,2.0236037556638427
K2 Sn1 Br6,3.552157084055904
K2 Sn1 Cl6,2.53496438987065
K2 Sn1 F6,3.21787957704126
K2 Sn1 Hg1 Se4,4.890521489869918
K2 Sn1 Hg1 Te4,5.226494115988931
K2 Sn1 N2,3.378413052365251
K2 Sn1 N6,2.520355429869003
K2 Sn1 O6,2.822134813489801
K2 Sn2 O3,3.8411576210190295
K2 Sr1 Cl4,2.312345145155087
K2 Ta1 Cl6,3.030342575816237
K2 Tc1,2.161651111762028
K2 Tc1 Br6,3.640910727970722
K2 Tc1 Cl6,2.53548586222616
K2 Tc1 F6,3.377755000481004
K2 Te1,2.450267348433865
K2 Te1 Br6,3.482446981112559
K2 Te1 Cl6,2.5055487796887173
K2 Te2 Pd1,3.7796673934790506
K2 Te2 Pt1,5.2056421854105
K2 Ti1 Cl6,2.232695150535417
K2 Ti1 F6,2.847791142623334
K2 Ti1 N2,2.7401434572432293
K2 Ti2 O5,2.8954664635652017
K2 Tl6 Tc1,8.321884865402938
K2 V1 Cl6,2.3133008079026403
K2 W1 Cl6,3.1341795707666256
K2 Zn1 F4,3.205569607646508
K2 Zn2 Cu1 S2 O2,3.392600767454858
K2 Zr1,1.91701905694634
K3 Ag1,1.9385170585588365
K3 Ag3 As2,4.24194242462473
K3 Al1,1.245930981648986
K3 As1,2.065450330721004
K3 Au1 O1,3.64482762945894
K3 Ba1,1.466287007290255
K3 Be1,1.1635571683158192
K3 Bi1,2.891516997577909
K3 Br1 Cl2,2.170762956734247
K3 Br1 O1,2.4032815202514923
K3 C1 O1,1.6856214686073818
K3 Ca1,1.0241653452562034
K3 Cd1,1.7201332026851592
K3 Ce1,1.0916279290038582
K3 Cl1 O1,1.9591150474649688
K3 Co1,1.0912572416882993
K3 Cr1,1.3561580691935724
K3 Cr1 F3,2.314100034097533
K3 Cu1,1.5286017746694314
K3 Cu3 As2,3.788903767484536
K3 Cu3 P2,3.251785493159514
K3 Dy1,2.0279529052871688
K3 Er1,2.058747032946288
K3 Eu1,1.6491869527685574
K3 Ga1,1.6522032414569487
K3 Ge1,1.9682781947409445
K3 Hf1,2.387475926307153
K3 Hg1,2.563621099234036
K3 Ho1,2.0453581207176232
K3 I1 O1,2.772863926490227
K3 I2 Br1,2.8796607100131824
K3 In1,1.9426593032810324
K3 Ir1,3.70583862299244
K3 Li1,0.8718376064506551
K3 Lu1,2.151134502964052
K3 Mg1,1.068302810798181
K3 Mn1,1.3552739775311289
K3 Mo1,1.738380134309533
K3 N1,1.1635729717090186
K3 Na1,0.9267836598550848
K3 Na1 H4,1.4220796452198985
K3 Na1 S2,2.048204169476615
K3 Nb1,1.7745355466750452
K3 Nd1,1.863314920589405
K3 Os1,3.587677278156357
K3 P1,1.70096878489421
K3 Pd1,2.3011622703430152
K3 Pm1,1.88627138357612
K3 Pr1,1.829740834419546
K3 Rb1,1.0598768341859524
K3 Re1,2.924901846974224
K3 Rh1,1.9067088333890072
K3 Ru1,2.3446077256740367
K3 S1 O4 F1,2.361199638499821
K3 Sb1,2.2445182590446504
K3 Sb1 S4,2.501686399711309
K3 Sb2 Au3,6.198840927938748
K3 Sc1,1.2434698743852188
K3 Si1,1.548493215623748
K3 Sm1,1.915147408801693
K3 Sn1,2.2372243491406847
K3 Sn1 Sb3,3.609118221275476
K3 Sr1,1.2334287550445695
K3 Ta1,2.672877710347452
K3 Tb1,1.9946826102249435
K3 Tc1,1.977727337225836
K3 Ti1,1.3252568303026333
K3 Tl1,2.5923745510613614
K3 Tm1,2.103527063188276
K3 V1,1.4267505892654917
K3 V1 O4,2.28983546939083
K3 V1 Se4,2.498679876297605
K3 W1,2.6759347852114743
K3 Y1,1.475527901119052
K3 Yb1,1.828534796655681
K3 Zn1,1.435438334298319
K3 Zr1,1.647695388072237
K4 Be1 As2,2.1252262307183187
K4 Be1 P2,1.6496087293113892
K4 Br2 O1,2.401788380618244
K4 C1,1.21062372397602
K4 C1 O4,1.6693447453507146
K4 C2 O3,2.024336174301101
K4 Cd1 As2,2.501045306546926
K4 Cd1 P2,2.123003358197054
K4 Hg1 As2,3.052030798611282
K4 Hg1 P2,2.708215561404081
K4 I2 O1,2.7920617263312484
K4 Ir1 O4,3.8082437122638138
K4 N1 O1,2.102844653342112
K4 Zn1 As2,2.353151335172881
K4 Zn1 P2,1.923342779335892
K5 As4,2.501741379161966
K5 Bi4,4.31123227769063
K5 Cu1 Sb2,2.832307058620449
K5 Sb4,2.980171640006947
Kr1,2.0300747752671926
Kr1 F2,2.9928922314694284
La1,6.122678571967442
La1 Ag1,7.220855201858124
La1 Ag1 Au2,11.489318495758708
La1 Ag1 Ge1,7.245454263170622
La1 Ag1 Hg2,10.758984982130135
La1 Ag1 O2,5.816172386145051
La1 Ag1 O3,7.058347222618608
La1 Ag1 Pb1,8.411313172323084
La1 Ag1 S1 O1,6.425297428420475
La1 Ag1 Sb2,7.54039037374044
La1 Ag1 Sn1,7.153874515631155
La1 Ag2,7.842400718537272
La1 Ag2 Au1,0.7557526088063532
La1 Ag2 Ge2,7.76164912307052
La1 Ag2 Hg1,0.7204109344189086
La1 Ag2 Sn1,8.184924770475067
La1 Ag3,8.191829788051242
La1 Al1,5.190966771320567
La1 Al1 Ag2,7.059591286680089
La1 Al1 Co4,7.333284662601593
La1 Al1 Cu1 Ni3,7.325569280038882
La1 Al1 Cu4,7.039771850992811
La1 Al1 Ge1,5.585194127520193
La1 Al1 H6,3.6953533991888254
La1 Al1 Ni4,7.435460848038577
La1 Al1 O3,2.839688462711673
La1 Al1 Si1,4.6716822282742
La1 Al1 Si2,4.246245591924229
La1 Al1 Zn1,5.471728919820819
La1 Al2,4.744791242841679
La1 Al2 Ag3,6.882276968381353
La1 Al2 B1 Os2,9.543919110424993
La1 Al2 B1 Ru2,6.632748981763597
La1 Al2 Cu3,6.226688554096631
La1 Al2 Ga2,5.353614054287046
La1 Al2 Ge2,4.922172320182248
La1 Al2 Pt3,11.694114736673924
La1 Al2 Si2,3.78475518819348
La1 Al2 Zn2,5.352003324170944
La1 Al3,4.087710981614599
La1 Al3 Au1,6.581685509581146
La1 Al3 Cu1,4.728274443535904
La1 Al3 Pd2,6.34584015568766
La1 Al4,3.844090370482607
La1 Al4 Cu2 Si1,4.678379612014203
La1 Al5 Ni2,4.73509925762283
La1 As1,5.969701239775118
La1 As1 Ir1,10.012603013316
La1 As1 Pd1,7.816642567613638
La1 As1 Rh1,7.834609168813391
La1 As1 Ru1 O1,6.874629413423426
La1 As2 Au1,8.834125444508075
La1 As2 Pd2,8.33368197813163
La1 As2 Ru2,8.562294867041631
La1 As3,6.01108864564013
La1 Au1,9.89027956504338
La1 Au1 O2,7.688501239703495
La1 Au2,12.05164838775172
La1 Au3,13.18996106591691
La1 B1 Pd3,9.034315460999029
La1 B1 Pt3,14.029397467652425
La1 B1 Rh3,9.639874314815753
La1 B2 Ir2 C1,11.605105747983783
La1 B2 Ir3,14.47576216457384
La1 B2 Pd2 C1,7.842774824100996
La1 B2 Pt2 C1,11.396350775673149
La1 B2 Rh2 C1,7.95604592914522
La1 B2 Rh3,9.339795548460776
La1 B2 Ru3,9.305679177158394
La1 B6,4.71752146288909
La1 Be1 Al3,3.8703100312513015
La1 Be1 O3,6.383239042690798
La1 Be1 Os2,12.730246870465978
La1 Bi1,7.787948508125181
La1 Bi1 Au2,12.178262605816805
La1 Bi1 Pd1,8.959959191758491
La1 Bi1 Pd2,0.8272311557042111
La1 Bi1 Pt1,10.655765226040756
La1 Bi2 Au1,10.99285875660997
La1 Bi2 C2 O2,7.453593561130449
La1 Bi2 Cl1 O4,7.338835382018139
La1 Bi2 I1 O4,7.780607084812007
La1 Bi2 O4,7.887948550181283
La1 Bi3,10.01624199572144
La1 Br1,4.621208477060388
La1 Br1 O1,5.900493870704993
La1 Br1 O2,5.358943925780371
La1 Br2,4.351825104416059
La1 Br3,4.8718311377039125
La1 C1,6.359075908527065
La1 C1 Br1,4.888836074044071
La1 C1 I1,5.30335091610064
La1 C1 O1,5.313413165673725
La1 C2,5.107165640360414
La1 Cd1,6.833365360549924
La1 Cd1 Ag2,8.081127663522192
La1 Cd1 Au1,9.620820768453363
La1 Cd1 Au2,11.284785292650993
La1 Cd1 Hg2,10.417368484311014
La1 Cd1 O3,6.803894253349305
La1 Cd1 Pd1,8.09211251527716
La1 Cd2,7.386350998958096
La1 Cd2 Ag1,0.5763369767867764
La1 Cd2 Cu1,7.752948901552651
La1 Cd2 In1,0.3908092886804277
La1 Cd2 Pd1,8.1746265216971
La1 Cd3,7.665861352877632
La1 Ce1,7.197393831294743
La1 Ce1 Al4,4.967418414050886
La1 Ce1 C4,5.582885557654663
La1 Ce1 F6,5.845918194416298
La1 Ce1 Hg2,9.8334099789683
La1 Ce1 In6,7.487719446720734
La1 Ce1 Mg2,4.6401130979971015
La1 Ce1 N2,7.409061889608691
La1 Ce1 Ni1 Pt1,9.39215344388082
La1 Ce1 O4 F2,5.41592470590597
La1 Ce1 Os4,15.170206679142732
La1 Ce1 Pd6,10.271367426145614
La1 Ce1 Pt2,11.294157406843857
La1 Ce1 Rh4,10.28889831725723
La1 Ce1 Ru4,10.149813335401207
La1 Ce1 Si2,6.004271500138806
La1 Ce1 Sn2 Ru2,8.39919224631475
La1 Ce1 Sn6,7.566800989534311
La1 Ce1 Zn2,6.678571617176189
La1 Ce3,8.350942350122532
La1 Ce4,8.39458172856335
La1 Cl1,3.69941803398028
La1 Cl1 O1,5.316550108457558
La1 Cl1 O2,3.999501847854005
La1 Cl3,3.7187629333011567
La1 Cl3 O3,2.763840467220803
La1 Co1,7.774253536717356
La1 Co1 As1 O1,6.905657433031204
La1 Co1 C2,6.770269586667012
La1 Co1 Ge1,7.250485990906517
La1 Co1 Ge2,7.3263815521963265
La1 Co1 Ge3,7.320617783002699
La1 Co1 Ni4,8.373587417793118
La1 Co1 O3,4.64523780354616
La1 Co1 P1 O1,6.175233014996639
La1 Co1 Sb2,7.549634755067836
La1 Co1 Si1,6.235570010357121
La1 Co1 Si2,5.837180894638951
La1 Co1 Si3,5.54388475936105
La1 Co1 Tc2,9.744828164069682
La1 Co1 Te1,7.576632009553807
La1 Co2,8.58856530472552
La1 Co2 As2,7.808637052308795
La1 Co2 B2,6.959059731671892
La1 Co2 Ge2,7.715637309278689
La1 Co2 Ni3,8.451317039259749
La1 Co2 P2,6.628601289659105
La1 Co2 Si2,6.438415086219421
La1 Co3 Ni2,8.282390340799186
La1 Co3 O3,6.4958639678366215
La1 Co5,8.320907659630928
La1 Co5 H3,7.731019003099208
La1 Cr1 Cu1 O6,4.27525759127092
La1 Cr1 Mo1 O6,5.368630385796289
La1 Cr1 Ni1 O6,5.098157280300577
La1 Cr1 O3,6.549860163598633