Composition,Density
Hf1 Ti1 C1 N1,9.46856869792026
Hf1 Ti1 C2,9.121449009303886
Hf1 Ti1 Co2,0.8052139264273553
Hf1 Ti1 F6,4.797753176698298
Hf1 Ti1 Fe2,0.675965084145417
Hf1 Ti1 Mo4,9.552948280341798
Hf1 Ti1 N2,9.794821582826962
Hf1 Ti1 Ni2,0.783701496112864
Hf1 Ti1 Os2,1.243692590901109
Hf1 Ti1 Re2,1.1581186017616043
Hf1 Ti1 Rh2,0.9109903439708972
Hf1 Ti1 Ru2,0.9755235337560512
Hf1 Ti1 Se4,5.89666447633478
Hf1 Ti1 Tc2,0.8770285422228703
Hf1 Ti1 W4,14.77451435466672
Hf1 Ti1 Zn2,8.791844669497028
Hf1 Ti3,7.157537720817587
Hf1 Tl1,13.5360283434404
Hf1 Tl1 Au2,1.1475509064434095
Hf1 Tl3,13.160169952865427
Hf1 V1 Au2,1.0957454346932594
Hf1 V1 F6,4.077358198236564
Hf1 V1 Ge1,10.016691949969688
Hf1 V1 Si1,8.89144348608286
Hf1 V2,9.47163160017764
Hf1 V2 Ga4,8.568621765747146
Hf1 V2 N3,8.961380792850214
Hf1 W1 C2,14.08649785527038
Hf1 W2,16.35379952578737
Hf1 Zn1,11.23343353979691
Hf1 Zn1 Au2,14.750266930471646
Hf1 Zn1 Co2,11.045638035450764
Hf1 Zn1 Cu2,10.50891660390453
Hf1 Zn1 Ir2,16.542443729036968
Hf1 Zn1 N2,9.189653092865878
Hf1 Zn1 Ni2,10.755468387954034
Hf1 Zn1 O3,7.154294748629557
Hf1 Zn1 Pd2,11.52581996767542
Hf1 Zn1 Pt2,15.7900678767721
Hf1 Zn1 Rh2,0.9121286631227624
Hf1 Zn2,10.323754437281863
Hf1 Zn2 Ga1,8.839994504800474
Hf1 Zn3,9.584430151207942
Hf1 Zr1,9.739729432121054
Hf1 Zr1 Au2,1.108581197061355
Hf1 Zr1 B4,8.517671292170547
Hf1 Zr1 C1 N1,9.859161296627883
Hf1 Zr1 C2,9.47441032275506
Hf1 Zr1 Co1 Sb2 Rh1,8.262993202842152
Hf1 Zr1 Co2,0.7736442645699277
Hf1 Zr1 Co2 Sb2,7.735119141065522
Hf1 Zr1 Fe2,9.98344139279054
Hf1 Zr1 Fe4,9.495397954454214
Hf1 Zr1 Hg2,0.9412159773015588
Hf1 Zr1 Mo4,9.839381679119771
Hf1 Zr1 N2,10.288350349896229
Hf1 Zr1 Nb2,9.211271820085342
Hf1 Zr1 O4,7.102128807366551
Hf1 Zr1 Os2,1.685981934777363
Hf1 Zr1 Rh2,0.9970716789813314
Hf1 Zr1 Ru2,0.9805265831319904
Hf1 Zr1 S6,4.444688862549949
Hf1 Zr1 Sb2 Rh2,8.656997139958914
Hf1 Zr1 Tc2,10.93601633479301
Hf1 Zr1 V4,7.967334263158579
Hf1 Zr1 W4,14.894430575145387
Hf1 Zr1 Zn2,9.04950439171559
Hf1 Zr3,8.061688916227292
Hf2 Ag1,12.35497755355524
Hf2 Al1,10.39628422761172
Hf2 Al1 Mo1,0.8506827738520077
Hf2 Al1 Re1,1.109000954944878
Hf2 Al1 Si1,9.377522851936446
Hf2 Al3 Ag1,8.574704408111705
Hf2 Al3 Au1,10.020822929476733
Hf2 Al3 Cu1,8.336557456931985
Hf2 Al3 Ni1,8.417198268384306
Hf2 Al3 Zn1,8.157639077377935
Hf2 Au1,14.868838400454695
Hf2 B1 Ir6,18.83293712211653
Hf2 Be1 Re1,1.349147538677706
Hf2 Be1 Zn1,0.7959585140533956
Hf2 Bi1,13.175850508703004
Hf2 Bi1 B1,11.825493960941827
Hf2 C1 N1,13.069401070247894
Hf2 C1 S1,11.152440664112376
Hf2 Cd1,11.797636678854523
Hf2 Co1 Cu1,1.3352180082141036
Hf2 Co1 Cu1 Sn2,10.704472570930475
Hf2 Co1 Ir1,15.200091308870046
Hf2 Co1 Ni1,1.1528952381679054
Hf2 Co1 Os1,1.191777639887505
Hf2 Co1 P1,11.44378767375712
Hf2 Co1 Re1,14.901885749115769
Hf2 Co1 Rh1,1.096452969904275
Hf2 Co1 Ru1,1.1262183500410163
Hf2 Co1 Tc1,12.874931975560362
Hf2 Co7,11.042572326012923
Hf2 Cr1 Ir1,1.1753654736515986
Hf2 Cu1,12.404239886769616
Hf2 Cu1 Ir1,14.640032082834798
Hf2 Cu1 Mo1,1.037396514919484
Hf2 Cu1 Ni1,0.9634757057789226
Hf2 Cu1 Os1,14.72346346894881
Hf2 Cu1 Re1,14.484356645265953
Hf2 Cu1 Rh1,12.528662427789538
Hf2 Cu1 Sb3,9.922904424279498
Hf2 Cu1 Si1 As2,1.4464347340522428
Hf2 Cu1 Si3,0.3379356077666868
Hf2 Cu1 Tc1,0.9823155934699752
Hf2 Fe1 C2 S1,6.946006284497411
Hf2 Fe1 Co1,0.7010873702744792
Hf2 Fe1 Cu1,0.8516600969045273
Hf2 Fe1 Ir1,14.898057675873073
Hf2 Fe1 Os1,15.144160753347858
Hf2 Fe1 Re1,1.0672650982156249
Hf2 Fe1 Rh1,1.2705492426340863
Hf2 Fe1 Ru1,1.273347185466958
Hf2 Fe1 Tc1,12.882188918759752
Hf2 Ga1,11.888919843182242
Hf2 Ga1 Sb3,9.76727007830564
Hf2 Ga3 Co1,10.587069253926929
Hf2 Ga3 Cu1,10.36253502693772
Hf2 Ga3 Ni1,10.505380688973874
Hf2 Ge1,11.201140187236057
Hf2 H1 C1,12.45010835320649
Hf2 H2 Pd1,12.200479447625698
Hf2 Hg1,14.04619703851844
Hf2 In1 C1,11.27081103662267
Hf2 In1 Mo1,0.880520830812476
Hf2 Ir1 Os1,1.4969485666756737
Hf2 Ir1 Pd1,15.123299321455836
Hf2 Ir1 Rh1,15.420879165488056
Hf2 Ir1 Ru1,15.554532026112474
Hf2 Mg1,7.903307883593677
Hf2 Mg1 Re1,0.8462942618420547
Hf2 Mn1 Co1,0.6284672579007613
Hf2 Mn1 Fe1,0.718595247545659
Hf2 Mn1 Ir1,14.970807321192089
Hf2 Mn1 Ni1,1.089834755122114
Hf2 Mn1 Os1,1.1314191562656026
Hf2 Mn1 Re1,1.0949685583673117
Hf2 Mn1 Rh1,12.89528163994008
Hf2 Mn1 Tc1,1.0061081565427166
Hf2 Mn1 Zn1,0.8710312324133267
Hf2 Mo1 Ir1,15.132835279890198
Hf2 Mo1 Pd1,1.0573308804718249
Hf2 Mo1 Pt1,1.2206640209525863
Hf2 Mo1 Rh1,13.09614665620049
Hf2 N1,13.236933619911715
Hf2 Nb1 In1,0.879300581772722
Hf2 Nb1 Ir1,1.1867241450307604
Hf2 Ni1,12.84854620559091
Hf2 Ni1 Ir1,0.9191107708689524
Hf2 Ni1 Mo1,0.8221277232900196
Hf2 Ni1 Os1,1.2475091367771842
Hf2 Ni1 P1,11.397623037403534
Hf2 Ni1 Rh1,1.1014094193031492
Hf2 Ni1 S4,7.197725266317264
Hf2 Ni7,11.16555708653493
Hf2 Os1 Pd1,15.223759169323072
Hf2 Os1 Rh1,15.490169448488691
Hf2 Os1 Ru1,1.3573904351317336
Hf2 Pb1 C1,13.18613784759003
Hf2 Pd1,13.114808879079316
Hf2 Pd1 Rh1,1.1042539526997028
Hf2 Pt3,17.47014629598138
Hf2 Re1 Ag1,1.0667741674826223
Hf2 Re1 Hg1,1.3476897936527994
Hf2 Re1 Ir1,17.428252318279327
Hf2 Re1 Ni1,14.716475539798372
Hf2 Re1 Os1,17.51386087741521
Hf2 Re1 Pd1,1.2317571220026051
Hf2 Re1 Pt1,1.4074936951982553
Hf2 Re1 Rh1,15.3078097813354
Hf2 Re1 Ru1,1.2599093300535749
Hf2 Re1 Tc1,15.219346645818876
Hf2 Ru1 Rh1,13.455109450775206
Hf2 S1,11.035293578624938
Hf2 S1 N2,8.28358245589087
Hf2 Sb1 P1,10.20499021638254
Hf2 Sb3,0.4433915303560132
Hf2 Sb3 Pd1,10.249797900418622
Hf2 Sb3 Te1,9.371755678669103
Hf2 Se1,11.44707568155242
Hf2 Se1 N2,10.186286282694144
Hf2 Se3 S3,6.066744385596019
Hf2 Si1,11.37026222989851
Hf2 Si1 As3,9.210507129440025
Hf2 Si1 H1,11.070838949971629
Hf2 Si1 S2,6.244390737841107
Hf2 Si1 Te2,7.782449278016662
Hf2 Sn1 C1,11.553737803720969
Hf2 Ta1 N3,12.813326227683236
Hf2 Tc1 Ir1,1.293907861810803
Hf2 Tc1 Ni1,1.0423241391039026
Hf2 Tc1 Os1,15.45655605151217
Hf2 Tc1 Pd1,1.118259081854399
Hf2 Tc1 Pt1,1.1594206814377086
Hf2 Tc1 Rh1,13.322360655507753
Hf2 Tc1 Ru1,13.451560392143785
Hf2 Ti1 Ir1,1.1637716247664815
Hf2 Tl1,13.73575801574604
Hf2 Tl1 C1,13.223382248548484
Hf2 V1 Ir1,1.2246101122958468
Hf2 V1 Os1,1.1396458567203354
Hf2 V1 Re1,1.1554643698132991
Hf2 V1 Rh1,1.1050281547962646
Hf2 V1 Si2,7.648955151303029
Hf2 V1 Tc1,0.9783520407315924
Hf2 Zn1,11.755995457951895
Hf2 Zn1 Fe1,0.9075345155377788
Hf2 Zn1 Hg1,0.8844490276063907
Hf2 Zn1 Ir1,1.0604476423218654
Hf2 Zn1 Mo1,0.9003423840703222
Hf2 Zn1 Os1,1.1018576039051573
Hf2 Zn1 Re1,14.067113188818992
Hf2 Zn1 Rh1,0.9653781013021024
Hf2 Zn1 Tc1,0.9834636558833408
Hf3 Ag1,12.788018261107103
Hf3 Al1,11.371635125586822
Hf3 Au1,14.76914924387517
Hf3 Be1,11.864683605647198
Hf3 Bi1,13.425830862283236
Hf3 C1,12.912079415794006
Hf3 Co1,12.92811823135854
Hf3 Cu4 Ge2,10.982686925707876
Hf3 Cu4 Si2,10.30199076390786
Hf3 Ga1,12.37535507494231
Hf3 Ge1,12.413418079985435
Hf3 Hg1,14.204855118836338
Hf3 I1,12.191177389551784
Hf3 Mg1,10.630004126505536
Hf3 N2,13.345825383411414
Hf3 N4,11.600863500577582
Hf3 Ni1,12.901058560896075
Hf3 Pb1,13.59572691103555
Hf3 Pt1,15.199644490938994
Hf3 Sc1,10.603925139724966
Hf3 Sc1 Si4,8.28638077516544
Hf3 Se1,12.494198752619798
Hf3 Si1,12.015742218924704
Hf3 Sn1,12.311223469011017
Hf3 Ta1,13.900206370370334
Hf3 Te2,9.956184915666254
Hf3 Tl1,13.794182067105906
Hf4 Ag1 Pd1,12.751248114018832
Hf4 Al1 Si1,10.895843838790476
Hf4 Al3,9.794990937735232
Hf4 C1 N3,13.36780946033961
Hf4 C3 N1,12.81349938910612
Hf4 Cu1 Si3,10.356267489947443
Hf4 Cu1 Si4,9.90834086262462
Hf4 N3,13.406376694726816
Hf5 Pb1,13.094885345688995
Hf5 Sc1,11.465147308549565
Hf5 Te4,10.619963328726206
Hf6 Al2 Co1,11.142722707263614
Hf6 Al2 Fe1,11.213260581759071
Hf6 Al2 Ni1,11.18033756716275
Hf6 Al2 Pt1,11.93180636871989
Hf6 Co1 Bi2,13.23415732812772
Hf6 Co1 Sb2,12.236207623589422
Hf6 Fe1 Sb2,12.290435901248529
Hf6 Ga2 Co1,12.056322872692212
Hf6 Ga2 Fe1,12.11885784001346
Hf6 Ni1 Bi2,13.205846396771651
Hf6 Ni1 Sb2,12.209880056905412
Hg1,3.9533286686092426
Hg1 As1 Pd5,11.353581224681225
Hg1 As2 O6,6.814357382346651
Hg1 Au3,16.890975181721718
Hg1 Au4,17.119754277160222
Hg1 B6,5.979166463509715
Hg1 Bi1 Pb2,0.9319412584421152
Hg1 Bi3,11.28660549354854
Hg1 Br1,6.678630234716551
Hg1 Br1 N1,5.850617243163494
Hg1 Br2,5.199394404680032
Hg1 Br3,5.490787542937476
Hg1 C1,9.93012992086571
Hg1 C1 N1 O3,3.8070113949275006
Hg1 C1 N2 O3,3.4545526562710043
Hg1 C2 S2 N2,3.525438656246062
Hg1 Cl1,6.256326938720107
Hg1 F1,8.970179704918127
Hg1 F2,7.521712663394766
Hg1 F3,9.11167382014072
Hg1 Ge1 O3,9.566805527650766
Hg1 Ge3,8.1349828662803
Hg1 I1,6.8375526799081765
Hg1 I1 Br1,5.100486127305493
Hg1 I2,5.169871713786026
Hg1 I3,5.593522432287204
Hg1 Ir1 O3,11.725548861199648
Hg1 N1,10.140738777966124
Hg1 N1 Cl1,5.926749997227264
Hg1 N1 Cl3,3.8994691757749895
Hg1 N2,2.839360734982429
Hg1 N2 Cl2,3.5961741769792672
Hg1 O1,9.849066490124043
Hg1 O2,7.931004066132798
Hg1 Os1,18.73669619213958
Hg1 Os1 O3,11.781877746005884
Hg1 Os1 Pb2,14.359963613907302
Hg1 P1 Pd5,11.22269578584022
Hg1 P1 Pt5,17.497605871860973
Hg1 P1 Rh1,9.12844518870082
Hg1 P2 Se1,7.435158997671653
Hg1 Pb1 F6,5.97327776477945
Hg1 Pb2,11.052462588233434
Hg1 Pb2 Cl2 O2,7.465152115547622
Hg1 Pb3,11.268068781097874
Hg1 Pb4,10.9985792604469
Hg1 Pd1,13.5180298161734
Hg1 Pd2 Au1,14.50613616879541
Hg1 Pd2 Pb1,1.0008910588611912
Hg1 Pd3,12.85754824147037
Hg1 Pd5 Se1,11.23953864861422
Hg1 Pt1,18.021971241043683
Hg1 Pt1 O2,10.33159453202636
Hg1 Pt3,19.232512267605365
Hg1 Pt4,19.533623911713512
Hg1 Rh1 F6,5.77551149624303
Hg1 Rh1 O3,9.323166633630525
Hg1 Ru1 O3,9.461778050129125
Hg1 S1,6.96513375128853
Hg1 S1 Br1,4.557380966157069
Hg1 Sb2 O6,7.137923948490662
Hg1 Se1,7.517552718899584
Hg1 Te1,7.377919077797716
Hg2 B1 Cl1,8.17467289823578
Hg2 Ge1 Se4,6.603111540177303
Hg2 I1 Br3,5.085279326085581
Hg2 I3 Br1,5.209795120586864
Hg2 N1,5.056971735115567
Hg2 Pt1,14.144080335104173
Hg2 Rh1,12.531139117356124
Hg2 Se1 S1,7.340980818748345
Hg2 Te1 S1,7.292634183657244
Hg2 Te1 Se1,7.450905041471231
Hg3 As1,11.569902012946214
Hg3 Au1,13.883023869037034
Hg3 B1,12.072956926926974
Hg3 Bi1,12.393944939054077
Hg3 C1,12.884340695092613
Hg3 Cl1,9.83727827675686
Hg3 F1,11.895279090798535
Hg3 Ge1,11.772566659153728
Hg3 Ir1,16.625068879320143
Hg3 P1,11.20299649069458
Hg3 Pb1,12.226887527990264
Hg3 Pd1,14.022392098626174
Hg3 Pt1,16.13957604751042
Hg3 Rh1,14.717295291859362
Hg3 Sb1,11.30181379857408
Hg4 Pt1,12.717343750372809
Ho1,8.66872483624529
Ho1 Ag1,9.484832369148831
Ho1 Ag1 Ge1,8.958476944389789
Ho1 Ag1 Hg2,12.55273182038221
Ho1 Ag1 Pb1,10.57122858781518
Ho1 Ag1 Se2,7.096882270888839
Ho1 Ag1 Sn1,8.676277992845415
Ho1 Ag1 Sn2,8.921133174459746
Ho1 Ag1 Te2,6.816510233549513
Ho1 Ag2,9.779243287729257
Ho1 Al1 Ag2,8.517158530176365
Ho1 Al1 Au2,12.297969710650689
Ho1 Al1 Cu1,7.521123316868656
Ho1 Al1 Cu4,8.017428844308938
Ho1 Al1 Ga1,7.146666973949175
Ho1 Al1 Ge1,7.191683381358793
Ho1 Al1 Ni1,7.740538761556921
Ho1 Al1 Ni4,8.427254669788496
Ho1 Al1 Si1,6.2628947840235405
Ho1 Al2,6.026340563030438
Ho1 Al2 Ge2,5.767936358395937
Ho1 Al2 Ni1,6.536177485210814
Ho1 Al2 Si2,4.561094314080292
Ho1 Al3,5.2406772507121016
Ho1 Al3 Cu1,5.63770828414343
Ho1 As1,8.166199293077938
Ho1 As3,7.622288911432572
Ho1 Au1,12.675278078548107
Ho1 Au2,14.64773747703758
Ho1 Au3,15.591674559937724
Ho1 Au4,16.20972418372873
Ho1 B1 C1,5.635909426353384
Ho1 B1 O3,8.870328944168055
Ho1 B1 Pd3,10.250866594802694
Ho1 B1 Rh3,10.849044989795354
Ho1 B2,8.642414420415765
Ho1 B2 Ir3,15.554246012221014
Ho1 B2 Rh2 C1,9.017962450622596
Ho1 B2 Rh3,10.30357839578025
Ho1 B2 Ru3,10.223242759983878
Ho1 B6,5.574852156432263
Ho1 Be1 Cu4,8.355662646434867
Ho1 Be1 O3,8.149399686173764
Ho1 Bi1,9.891814539523097
Ho1 Bi1 Pd1,10.550094250962204
Ho1 Bi1 Pt1,12.406779662595886
Ho1 Bi1 Rh1,11.70680025383858
Ho1 Bi1 Te3,7.099457794442885
Ho1 Bi2 Br1 O4,8.471310045810544
Ho1 Bi2 Cl1 O4,8.278940385967152
Ho1 Bi2 I1 O4,8.556000610459362
Ho1 Bi3,10.806414079814004
Ho1 Br1 O1,5.910409381056759
Ho1 Br2,5.596623139093773
Ho1 Br3,4.019453872784889
Ho1 C2,7.635540512394045
Ho1 Cd1,8.836917806236025
Ho1 Cd1 Ag2,9.571692080450577
Ho1 Cd1 Au1,11.474307228123632
Ho1 Cd1 Au2,13.16898720223684
Ho1 Cd1 Cu4,9.4676625843909
Ho1 Cd1 Hg2,12.05601900184346
Ho1 Cd1 In1,8.557459969352438
Ho1 Cd1 Ni4,9.852505564550489
Ho1 Cd1 Pd2,10.476755893760524
Ho1 Cd1 Pt2,14.247370347752454
Ho1 Cd1 Rh2,10.985079929622929
Ho1 Cd2,7.813196202984641
Ho1 Cd3,8.744433482287477
Ho1 Cl1 O1,7.073997853397542
Ho1 Cl1 O2,5.809795957902174
Ho1 Cl2,4.795422945091673
Ho1 Cl3,2.9465393584214463
Ho1 Co1 C1,8.733981554840776
Ho1 Co1 C2,8.628151795561026
Ho1 Co1 Ge2,8.583639271352824
Ho1 Co1 Ni1,10.278550089737218
Ho1 Co1 Ru1,10.988112575305555
Ho1 Co1 Si2,7.290220991210933
Ho1 Co1 Sn2,7.553589433144856
Ho1 Co2,10.222907258329029
Ho1 Co2 B2,8.637263364497672
Ho1 Co2 Ge2,9.00420755934234
Ho1 Co2 Si2,7.719283863395082
Ho1 Co3 B2,9.272024076586527
Ho1 Co3 Cu2,9.27309406568978
Ho1 Co3 Ni2,9.385106750220215
Ho1 Co4 Cu1,9.291085602680273
Ho1 Co4 Ni1,9.286787613124725
Ho1 Co5,9.268919768324915
Ho1 Cr2 Si2,6.830280404133794
Ho1 Cr2 Si2 C1,6.837675345745144
Ho1 Cu1,9.253542800356623
Ho1 Cu1 As2,8.424990364883028
Ho1 Cu1 Ge1,8.806598957992515
Ho1 Cu1 O2,6.960098332681151
Ho1 Cu1 O3,8.600762313082878
Ho1 Cu1 P2,7.217434652191367
Ho1 Cu1 Pb1,10.63035147229756
Ho1 Cu1 Sb2,8.624597047174053
Ho1 Cu1 Se2,6.937134913036319
Ho1 Cu1 Si1,7.532727276219499
Ho1 Cu1 Sn1,8.91408174524826
Ho1 Cu1 Te2,7.535590576697723
Ho1 Cu2,9.05706546018306
Ho1 Cu2 Ge2,8.609897160068337
Ho1 Cu2 S2,6.952999724562495
Ho1 Cu2 Se1 O2,4.534066136267644
Ho1 Cu2 Si2,7.390548801774872
Ho1 Cu4 Ag1,9.62336041448488
Ho1 Cu4 Au1,11.247741864022336
Ho1 Cu4 Ni1,9.22054275142037
Ho1 Cu4 Pd1,10.001928566753891
Ho1 Cu5,9.039159021018754
Ho1 Er1,8.781113441283487
Ho1 Er1 Ag2,9.594342191462928
Ho1 Er1 Al2,7.047075990368399
Ho1 Er1 Cd2,8.942978950159906
Ho1 Er1 Cu2,9.717628203206294
Ho1 Er1 Hg2,11.990484260024315
Ho1 Er1 In2,8.978661985468719
Ho1 Er1 Ir2,15.000836361676996
Ho1 Er1 Mg2,5.905131785967784
Ho1 Er1 O3,8.244907443646573
Ho1 Er1 Pd2,10.701856623372295
Ho1 Er1 Rh2,11.250969603356612
Ho1 Er1 Ru2,11.450611516171264
Ho1 Er1 Tl2,11.410959864919208
Ho1 Er1 Zn2,8.640203817134823
Ho1 Er3,8.89087974964626
Ho1 Fe1 C2,8.4079371826083
Ho1 Fe1 Co1,9.84316411862168
Ho1 Fe1 Cu1,9.741195365761742
Ho1 Fe1 Ge2,8.458286930054046
Ho1 Fe1 Ni1,10.362047908655777
Ho1 Fe1 Ni4,9.207174273825752
Ho1 Fe1 Ru1,10.929093185610393
Ho1 Fe1 Si1,7.921780245982221
Ho1 Fe2,9.691970192043025
Ho1 Fe2 B2,8.189446024939315
Ho1 Fe2 Ge2,8.456604516164752
Ho1 Fe2 Si2,7.448017771997543
Ho1 Fe5,8.679527092480908
Ho1 Ga1,8.171440104329669
Ho1 Ga1 Ag1,8.912671371395193
Ho1 Ga1 Au1,11.47428677793186
Ho1 Ga1 Rh2,10.916031131974425
Ho1 Ga2,8.075986698259134
Ho1 Ga2 Ni1,8.723102150770826
Ho1 Ga2 Pd1,9.196483819428394
Ho1 Ga3,8.009291110527693
Ho1 Ga5 Co1,7.817097896992214
Ho1 Ge1,8.751848219834732
Ho1 Ge1 Au1,10.410046756457234
Ho1 Ge1 O3,7.963830434741589
Ho1 Ge1 Pd1,9.627353380612368
Ho1 Ge2 Pd1,8.801723114192196
Ho1 Ge2 Pd2,9.37022646617456
Ho1 Ge2 Rh2,9.654227796330972
Ho1 Ge2 Ru2,9.487253234103944
Ho1 Ge3,7.654826429425261
Ho1 H1 O2,6.711285271211084
Ho1 H1 Se1,8.24550233807294
Ho1 H2,8.066010912136269
Ho1 Hf1 Os2,16.423886578476395
Ho1 Hf1 Ru2,12.47885938469073
Ho1 Hg1,11.85160060822129
Ho1 Hg2,11.282883199780782
Ho1 Hg3,13.27517144403423
Ho1 I1 O1,6.888772812886632
Ho1 I3,3.80528773207834
Ho1 In1,8.850496892466294
Ho1 In1 Ag2,9.629853865372022
Ho1 In1 Au1,11.438001881273903
Ho1 In1 Au2,13.10584037314596
Ho1 In1 Co2,9.250310537752142
Ho1 In1 Co4,9.85200564336029
Ho1 In1 Cu1,9.0461212275167
Ho1 In1 Cu2,9.33620366657954
Ho1 In1 Ir1,12.188729552175722
Ho1 In1 Ni1,9.321256592502602
Ho1 In1 Ni4,9.849803901283426
Ho1 In1 Pd1,9.74515492030149
Ho1 In1 Pd2,10.468212567951293
Ho1 In1 Pt1,12.042964712975088
Ho1 In1 Pt2,13.4475671703132
Ho1 In1 Pt4,15.75180258335967
Ho1 In1 Rh1,9.92069603080219
Ho1 In1 Rh2,11.024696087135627
Ho1 In3,8.521945497624968
Ho1 In5 Co1,8.349080095456124
Ho1 In5 Rh1,8.53802793061462
Ho1 Ir1,14.911652689787244
Ho1 Ir2,16.83371897364451
Ho1 Lu1 Ag2,10.022751053846047
Ho1 Lu1 Al2,7.33156053110915
Ho1 Lu1 Au2,13.478638908388684
Ho1 Lu1 Cd2,9.210043409723706
Ho1 Lu1 Cu2,9.683606243990765
Ho1 Lu1 Hg2,12.330186202991587
Ho1 Lu1 In2,9.201139630975783
Ho1 Lu1 Ir2,15.496761955956837
Ho1 Lu1 Mg2,6.098479635242232
Ho1 Lu1 Pd2,11.039813564031702
Ho1 Lu1 Rh2,11.627039049357531
Ho1 Lu1 Ru2,11.818316720822478
Ho1 Lu1 Tl2,11.658583221080926
Ho1 Lu1 Zn2,8.928194263001917
Ho1 Lu3,9.583985714212202
Ho1 Mg1,5.839349269504687
Ho1 Mg1 Ag1,6.962140641734759
Ho1 Mg1 Ag2,7.894829287705349
Ho1 Mg1 Au2,11.640666945923291
Ho1 Mg1 Cd2,7.409860195152728
Ho1 Mg1 Ga1,6.3751909047861535
Ho1 Mg1 Hg2,10.634667244256446
Ho1 Mg1 In1,6.637118377315374
Ho1 Mg1 Pd1,7.529508911293612
Ho1 Mg1 Rh2,9.279802437281456
Ho1 Mg1 Sn1,6.687652996400591
Ho1 Mg1 Tl1,8.545167624455484
Ho1 Mg1 Tl2,9.631162018513429
Ho1 Mg1 Zn2,6.688289958080588
Ho1 Mg2,4.581688172144094
Ho1 Mg2 Sc1,4.271847678312044
Ho1 Mg3,3.970741122165115
Ho1 Mg5,3.237786696439661
Ho1 Mn1 Al1,7.211044350856294
Ho1 Mn1 Fe1,9.70806528637555
Ho1 Mn1 Ga1,8.223077628625827
Ho1 Mn1 In1,8.035365495038285
Ho1 Mn2,9.778865519813236
Ho1 Mn2 Ge2,8.334002061455411
Ho1 Mn2 Si2,7.070510329171681
Ho1 N1,10.232722561826408
Ho1 Nb1 Os2,14.983196514104671
Ho1 Nb1 Ru2,10.893700640405886
Ho1 Ni1,9.461590556864074
Ho1 Ni1 As1,9.122808718071724
Ho1 Ni1 Bi1,10.633198550474996
Ho1 Ni1 C2,8.535319459822096
Ho1 Ni1 Ge1,9.161377757935856
Ho1 Ni1 Ge2,8.554815932129241
Ho1 Ni1 Sb1,9.042786209418765
Ho1 Ni1 Sb2,8.705486368962193
Ho1 Ni1 Sn1,9.59290441377548
Ho1 Ni2,10.345716317364552
Ho1 Ni2 B2 C1,8.11075125231065
Ho1 Ni2 Ge2,8.825428436905984
Ho1 Ni2 P2,8.183607947793588
Ho1 Ni4 Au1,11.734777066267275
Ho1 Ni5,9.452775548859902
Ho1 O1,9.129765945417732
Ho1 O1 F1,8.377108899640094
Ho1 O2,7.280398340840462
Ho1 O3,5.701386902479575
Ho1 Os3,18.008514547636416
Ho1 P1,7.251702115108214
Ho1 P2 Pd2,8.832209141060652
Ho1 P2 Ru2,9.09211168804148
Ho1 Pb1 Au1,11.860898638042643
Ho1 Pb3,11.174661304505756
Ho1 Pd1,10.165859312140352
Ho1 Pd2,9.56152343867946
Ho1 Pd2 Pb1,11.921297526077009
Ho1 Pd3,11.534824603525507
Ho1 Pt1,13.583295939735736
Ho1 Pt2,16.277753295208274
Ho1 Pt3,17.91354392969564
Ho1 Rh1,11.160585746822436
Ho1 Rh1 O3,8.591476634200149
Ho1 Rh2,11.469274766375888
Ho1 Rh2 Pb1,12.538523371253463
Ho1 Rh3 C1,11.091419219911344
Ho1 Ru3 C1,11.1207162366456
Ho1 S1,1.5828121350869724
Ho1 S1 F1,7.393129191737458
Ho1 S1 I1,4.767822412314638
Ho1 S2,6.444960395407679
Ho1 Sb1,8.062841688700322
Ho1 Sb1 O3,7.258709678135883
Ho1 Sb1 Pd1,8.563340639679181
Ho1 Sb1 Pd2,10.535087724724
Ho1 Sb1 Pt1,11.149208386251823
Ho1 Sb1 Rh2,11.08459801320306
Ho1 Sb2,7.958214405200482
Ho1 Sb3,8.089507604392841
Ho1 Sc1 Al2,5.212265961577268
Ho1 Sc1 Ru2,9.507814610325976
Ho1 Sc1 Zn2,6.739207940013431
Ho1 Se1,8.588296322340119
Ho1 Se1 I1,0.194514912421109
Ho1 Se2,7.836342458316387
Ho1 Si1,7.513612499437352
Ho1 Si1 Ni4,8.750748007721581
Ho1 Si1 O3,7.839893360987574
Ho1 Si2,6.399244823007486
Ho1 Si2 Au2,10.96551440613567
Ho1 Si2 Ir2,12.136896314904844
Ho1 Si2 Ni1,7.236935004652655
Ho1 Si2 Ni2,7.569765326451716
Ho1 Si2 Os2,11.870239684146608
Ho1 Si2 Pd2,8.409939949474161
Ho1 Si2 Pt2,11.7419838121484
Ho1 Si2 Rh2,8.620254237684646
Ho1 Si2 Rh3,9.063392941184995
Ho1 Si2 Ru2,8.425942597200903
Ho1 Si3 Ir1,8.526118753550328
Ho1 Sn1 Au1,10.527027925263454
Ho1 Sn1 Au2,12.925849463515991
Ho1 Sn1 Ge1,8.355467806254104
Ho1 Sn1 Ir1,12.44969933547742
Ho1 Sn1 O3,6.681846650800492
Ho1 Sn1 Pd2,10.563844059582577
Ho1 Sn1 Pt1,12.161251183803383
Ho1 Sn1 Rh1,10.14046691685253
Ho1 Sn1 Rh2,11.064910675947386
Ho1 Sn1 Ru2,11.211508024435004
Ho1 Sn2,8.493873443439709
Ho1 Sn3,7.979697711590262
Ho1 Ta1 O4,10.036519164488247
Ho1 Ta1 Os2,17.118823179529535
Ho1 Ta1 Ru2,13.053477066706018
Ho1 Ta3,14.518770771170876
Ho1 Te1,8.430738641367533
Ho1 Te2,7.982711014655615
Ho1 Te3,7.027021268967508
Ho1 Ti1 Ge1,7.589820382885036
Ho1 Ti1 Si1,6.561676532440618
Ho1 Ti2 Ga4,7.175807679682911
Ho1 Tl1,11.27726241796984
Ho1 Tl1 O2,9.808103947970531