Composition,Density
Sm3 Hf1,8.654158078631756
Sm3 Hg1,9.170624046777451
Sm3 Ho1,7.676755595595909
Sm3 Ho1 S4,6.950919663346938
Sm3 I1,7.478228721486027
Sm3 In1,7.792241695633621
Sm3 In1 C1,5.152648080441193
Sm3 In1 N1,7.906153925018056
Sm3 Lu1,7.834405754832495
Sm3 Mg1,6.39107180812844
Sm3 Pb1 C1,5.681599334566553
Sm3 Pd1,8.415892075110712
Sm3 Sc1,6.489867867293586
Sm3 Si1,7.526627820508704
Sm3 Si3 Ni1,6.545597749953311
Sm3 Sn1 C1,5.117494210327947
Sm3 Sn1 N1,8.071956017420742
Sm3 Ti1,7.114564781892296
Sm3 Tl1 C1,8.540946267662997
Sm3 Tm1,7.750625331377149
Sm3 Tm1 S4,6.998453423699652
Sm3 V1,7.238085416819791
Sm3 Y1,6.5959838340259145
Sm3 Y1 S4,6.182373126454941
Sm3 Zn1,7.637141379825417
Sm3 Zr1,7.392339532274752
Sm4 Bi2 O1,8.997207760049832
Sm4 Mg3 Co2,5.8774055042531765
Sm4 S3 N2,5.808394157434063
Sm5 Mg1,6.684584673272847
Sn1,5.371466121024904
Sn1 As1,6.560009820857189
Sn1 As1 Pd6,10.730572407062784
Sn1 As3,6.415019419534111
Sn1 Au1,10.944865133940604
Sn1 Au3,14.92841490329596
Sn1 Au5,16.001734212245303
Sn1 B1,5.713651153668774
Sn1 B1 O3,6.917640374340761
Sn1 B6,4.110239148529934
Sn1 Bi1,8.588814778093932
Sn1 Bi1 O4,6.73586510485157
Sn1 Bi2 Te4,7.114758679476172
Sn1 Bi3,9.891170528977836
Sn1 Br1 Cl1,3.675158190900963
Sn1 Br1 F1,5.426722674146268
Sn1 Br2,4.018762626923353
Sn1 Br6 N2,3.5375537320785804
Sn1 C1,6.597289924722662
Sn1 C1 Cl3,2.3701655248870184
Sn1 C1 I3 N1,4.086330635417841
Sn1 C1 N2,3.8860224143684623
Sn1 Cl1,4.80295490556728
Sn1 Cl1 F1,4.749491031713359
Sn1 F3,3.424098999747249
Sn1 F4,4.468959589894858
Sn1 Ge1,1.530941159943396
Sn1 Ge1 N2,6.357290404719052
Sn1 Ge1 O3,6.887929191489851
Sn1 Ge1 Se2,5.488088121542885
Sn1 Ge3,6.416859558606362
Sn1 H4 N2 F2,3.563827669505965
Sn1 Hg1 F6,5.1469623173714565
Sn1 Hg1 O3,8.970404073787693
Sn1 Hg1 Pb2,1.2881828963320243
Sn1 Hg2 Se4,6.566221135166291
Sn1 Hg3,11.33968812672944
Sn1 I2,4.524724251448961
Sn1 I3,3.8103983183229606
Sn1 I4,3.4791113138617904
Sn1 Ir1,12.928439867015154
Sn1 Ir1 Se2,10.13702206942975
Sn1 Ir3,18.17531257917233
Sn1 Mo3,9.714243064478987
Sn1 N1,6.691764321964233
Sn1 N2 Cl6,2.440925476874953
Sn1 N2 F2,3.742280089650952
Sn1 N2 F6,3.270123269586825
Sn1 O1,5.566361254993614
Sn1 O2,3.305100740779426
Sn1 Os1 N1,9.12014873893266
Sn1 Os2 Ru1,15.64485677570738
Sn1 P1,4.785522252094972
Sn1 P1 Pd5,10.046675336362762
Sn1 P1 Pt5,16.34084115413305
Sn1 P2 S6,2.7403623167805216
Sn1 P3,4.052568130568837
Sn1 Pb1,9.032526482523004
Sn1 Pb1 N2,8.743734677195102
Sn1 Pb1 O3,8.828742790401577
Sn1 Pb1 S2,2.113596084791729
Sn1 Pb1 Se2,6.941947971322021
Sn1 Pb3,10.015734390250657
Sn1 Pd1,9.344015419425425
Sn1 Pd2 Au1,1.0078753827453135
Sn1 Pd3,10.38693842737166
Sn1 Pd3 C1,9.714029519183192
Sn1 Pt1,12.45369291033377
Sn1 Pt3,17.392276612742958
Sn1 Pt3 C1,14.974052617304
Sn1 Rh1,10.390657912404716
Sn1 Rh2 Au1,1.0289402103575311
Sn1 Rh3,11.282119517261227
Sn1 Ru1 W1,11.211957716810678
Sn1 S1,1.2825756497389549
Sn1 S2,3.391010521111248
Sn1 Sb1,4.823288012557683
Sn1 Sb1 O4,6.335479937308899
Sn1 Sb1 Pt1,9.886676810760276
Sn1 Sb2 Te4,6.146180766792538
Sn1 Se1,0.8996705469295915
Sn1 Se1 S1,4.756631238362117
Sn1 Se2,5.12049911666342
Sn1 Te1,4.34276174598095
Sn1 Te1 Pb1 Se1,6.924571569908935
Sn1 Te2 Pb1,7.056126208558099
Sn1 Te2 Pd6,9.598783233397736
Sn1 Te3,7.233115420308162
Sn1 Te4 Pb3,7.413369092294139
Sn2 B1 Se1,6.467094150104898
Sn2 Ge1 Te3,6.173578266562528
Sn2 Ir1,10.685758613057205
Sn2 O1,4.833649262028976
Sn2 Pb1 Se3,6.618127930477818
Sn2 Pd1 Au1,10.075161919103206
Sn2 Pd2 Au1,10.585081960960125
Sn2 Pd3 Au1,11.65623245910357
Sn2 Pd3 Pt3,14.278044141518825
Sn2 Pt1,10.200402387588715
Sn2 Rh1,6.937253781715277
Sn2 Rh3 S2,7.933718357089298
Sn2 Ru1,9.316369993768095
Sn2 Se1 N2,6.966811681853253
Sn2 Se1 S1,5.38663914109193
Sn3 As1,6.937767806978146
Sn3 As4,5.4084311187323335
Sn3 Au1,9.109662355003714
Sn3 B1,6.5050115199883
Sn3 Bi1,8.011699507614136
Sn3 Bi1 Te4,6.735783212084294
Sn3 Ge1,6.884950769614303
Sn3 Hg1,8.466461424217144
Sn3 Mo1,8.37551077927053
Sn3 N1,7.046569107809805
Sn3 P1,6.430784588314111
Sn3 P4,4.208192102472708
Sn3 Pb1,7.945341955235762
Sn3 Rh1,8.5805919357959
Sn3 Ru1,8.090547603571524
Sn3 S1,6.552648437563735
Sn3 Sb1,6.889021008595952
Sn3 Se1,6.776053025689074
Sn3 Te1,6.8759384448927605
Sn3 Te2 Se1,6.17109157180339
Sn4 As3,0.8373949692248355
Sn4 P3,5.636037689248044
Sn4 Te1 Se3,5.788527509455301
Sn4 Te3 Se1,4.34445736112557
Sr1,0.3415373931520808
Sr1 Ag1 As1,5.842633554520232
Sr1 Ag1 Bi1,7.194391090954856
Sr1 Ag1 O2,5.885536131502287
Sr1 Ag1 O3,5.822637136845708
Sr1 Ag1 P1,5.260779234975924
Sr1 Ag1 S1 F1,5.312733446667156
Sr1 Ag1 Sb1,6.053568607927178
Sr1 Ag1 Te1 F1,6.034281461051804
Sr1 Ag2,6.334108122139966
Sr1 Ag2 Ge2,6.711930494871234
Sr1 Ag2 Sn2,6.779264853183332
Sr1 Ag3 Pd2,8.202308811307498
Sr1 Ag4 Sb2,7.397287746838665
Sr1 Ag5,7.702431281008088
Sr1 Al1 Cu3 Se4,4.608757517279214
Sr1 Al1 Ga1,3.1934279724834043
Sr1 Al1 Ge1,4.020470824771902
Sr1 Al1 Ge1 H1,3.993334167002414
Sr1 Al1 H3,2.0258195670881345
Sr1 Al1 In1,4.571006142150087
Sr1 Al1 O3,4.784255040004791
Sr1 Al1 Si1,3.162716702320716
Sr1 Al1 Si1 H1,3.1024453067826654
Sr1 Al2,2.966386712420616
Sr1 Al2 Ga2,4.317768930308677
Sr1 Al2 Ge2,4.051936096880645
Sr1 Al2 H2,2.837524169952091
Sr1 Al2 Pb2,6.293261691557148
Sr1 Al2 Si2,2.8774248527923105
Sr1 Al2 Te4,4.521575917509389
Sr1 Al3 Ag1,4.158667976863011
Sr1 Al4,2.897180375449828
Sr1 As1 Au1,7.757675107091459
Sr1 As1 O3,5.56687622512511
Sr1 As1 Pd1,6.122707337579806
Sr1 As1 Pt1,8.145339988869129
Sr1 As2 O6,4.729874926934848
Sr1 As2 Pd2,7.300167746952969
Sr1 As2 Rh2,7.253859933726003
Sr1 As2 Ru2,7.2434782910677
Sr1 As2 S4,3.094975692855144
Sr1 As3,4.969328860058033
Sr1 Au1 O2,8.01690927824189
Sr1 Au1 O3,7.806570144195962
Sr1 Au2,10.395564472295773
Sr1 Au5,13.418467054628945
Sr1 B2,4.309087358469546
Sr1 B2 N2,2.445739952877237
Sr1 B6,3.417060889016553
Sr1 Be1 Ge1,4.213846939693044
Sr1 Be1 O3,4.613479639488415
Sr1 Be1 Si1,3.2019136938208583
Sr1 Bi1 Au1,9.295843894856882
Sr1 Bi1 Au2,0.865750415711471
Sr1 Bi1 B1,5.066540749626782
Sr1 Bi3,9.068003757945096
Sr1 Br1 Cl1,3.54511198795823
Sr1 Br1 F1,4.555674942012163
Sr1 Br2,3.393064602908686
Sr1 Br2 O6,4.133340736365773
Sr1 Br3,4.554263640247623
Sr1 C1,3.613934455305212
Sr1 C1 N2,3.011450037936628
Sr1 C1 O3,3.288793327351459
Sr1 C2,3.1501871091707656
Sr1 Ca1,2.1958660170071016
Sr1 Ca1 Ag2,0.3815716442883604
Sr1 Ca1 Al4,2.8896786213116954
Sr1 Ca1 Cd2,0.3205851143346066
Sr1 Ca1 Cu1 O3,4.755644451131463
Sr1 Ca1 Cu2 O4,4.758932337280637
Sr1 Ca1 Eu2,3.970158550293677
Sr1 Ca1 Hg2,7.276273216612097
Sr1 Ca1 I4,3.6913568514477935
Sr1 Ca1 In2,4.721658501266745
Sr1 Ca1 Mg2,0.1523175173025896
Sr1 Ca1 O2,4.137073113492703
Sr1 Ca1 O3,3.4807723552883685
Sr1 Ca1 Pb2,0.5852402565293496
Sr1 Ca1 Pb6,8.982077128116192
Sr1 Ca1 S2,3.098300033632671
Sr1 Ca1 Si1,2.678747736946681
Sr1 Ca1 Si4,2.9343348512447625
Sr1 Ca1 Sn1,3.582480202918828
Sr1 Ca1 Tl2,6.901823612279671
Sr1 Ca1 Zn2,0.2725580024734529
Sr1 Ca2 I6,3.835483873924122
Sr1 Ca2 Si6,2.770273662084791
Sr1 Ca3,1.9060039946569407
Sr1 Ca3 Ag4,4.633930103771679
Sr1 Ca3 Br2 N2,3.75463375650975
Sr1 Ca3 O4,3.731162869927697
Sr1 Ca3 Si4,2.685021088926068
Sr1 Cd1,4.884925589578841
Sr1 Cd1 Au2,0.7400035795885637
Sr1 Cd1 Bi2,7.9650271087369395
Sr1 Cd1 Ga1,5.480407642893256
Sr1 Cd1 Hg2,9.097519648874194
Sr1 Cd1 O2,6.147157205208419
Sr1 Cd1 Pb1,7.040845941698995
Sr1 Cd1 Si1,3.902546693587505
Sr1 Cd1 Sn1,5.84715506559439
Sr1 Cd2,5.74978018328299
Sr1 Cd2 As2,5.772363281423372
Sr1 Cd2 Ga2,6.159741130244444
Sr1 Cd2 Ge2,6.121213871450927
Sr1 Cd2 P2,5.083181409125616
Sr1 Cd2 Pd1,6.946321358737507
Sr1 Cd2 Sb2,5.859375651273412
Sr1 Cd3,6.624021975535018
Sr1 Cd3 S4,5.102203414216747
Sr1 Ce1 Al1 O4,5.978883262075594
Sr1 Ce1 Hg2,8.935851103028124
Sr1 Ce1 Mg6,2.770556174784436
Sr1 Ce1 N2,6.035995804664521
Sr1 Ce1 V1 O4,5.891064759673223
Sr1 Ce2 S2 F4,5.264807034412552
Sr1 Ce3,6.211657929888554
Sr1 Cl1 F1,3.8447750200454647
Sr1 Cl1 O1,3.027477778875559
Sr1 Cl2,3.0085344748497715
Sr1 Cl2 O6,2.0568640231331137
Sr1 Cl3,3.2349832934639213
Sr1 Co1 Cu3 Se4,4.982244223521581
Sr1 Co1 O1,1.1912853838744235
Sr1 Co2 As2,6.365747273177794
Sr1 Co2 Ge2,6.519288707190946
Sr1 Co2 N2,6.460996232458377
Sr1 Co2 P2,5.330445086509914
Sr1 Co2 Si2,5.138827061585355
Sr1 Cr1 Cu3 Se4,4.893874521374225
Sr1 Cr1 F6,3.963409375194724
Sr1 Cr1 O2,4.986096108562165
Sr1 Cr1 O3,5.279509212613665
Sr1 Cr1 Pd2,7.249037510453535
Sr1 Cr1 Rh2,7.780002773074041
Sr1 Cr1 W2,11.984029439735096
Sr1 Cr2 As2,5.4903473389080455
Sr1 Cr2 N2,5.837406397534349
Sr1 Cu1,4.000956388487638
Sr1 Cu1 As1,5.509455925749156
Sr1 Cu1 Bi1,7.059022168881526
Sr1 Cu1 Ge1,5.255569853887351
Sr1 Cu1 O2,2.477856037184245
Sr1 Cu1 O3,5.642249841707655
Sr1 Cu1 P1,4.809589200220416
Sr1 Cu1 S1 F1,4.899800897425529
Sr1 Cu1 S1 O1,4.757619044294449
Sr1 Cu1 Sb1,5.71595530502896
Sr1 Cu1 Se1 F1,5.546135948056412
Sr1 Cu1 Si1,4.298167893997007
Sr1 Cu1 Sn2,6.20697961663269
Sr1 Cu1 Te1 F1,5.864055453110362
Sr1 Cu2 As2,6.268381987804132
Sr1 Cu2 Ge1 S4,4.175366062383344
Sr1 Cu2 Ge2,6.330831826496684
Sr1 Cu2 O3,5.323718264637621
Sr1 Cu2 Si2,5.149290237427104
Sr1 Cu2 Sn2,6.573473695102056
Sr1 Cu3 Ni1 Se4,4.992045034003431
Sr1 Cu4 Ag1,7.19815537151832
Sr1 Cu4 As2,6.800055402721125
Sr1 Cu5,6.9727263439406215
Sr1 Dy1 O3,5.919956586919827
Sr1 Dy3,6.803947238318004
Sr1 Er1 O3,6.174505378718418
Sr1 Er2 O4,5.285408654793965
Sr1 Eu1,4.00663217126175
Sr1 Eu1 Al1 O4,6.25371415626288
Sr1 Eu1 C4,4.326830234127375
Sr1 Eu1 Co1 O4,6.714680779779556
Sr1 Eu1 Hg2,8.444267639601188
Sr1 Eu1 In2,6.161503265566645
Sr1 Eu1 Ni1 O4,6.677696404124528
Sr1 Eu1 O2,6.600573197908672
Sr1 Eu1 O3,5.669031021371436
Sr1 Eu1 P2 Pt2,8.662374413428486
Sr1 Eu1 Pt2,10.784296093806123
Sr1 Eu1 S2,4.674569984009984
Sr1 Eu1 Sc1 O4,5.608882178232203
Sr1 Eu1 Se1 S1,5.0693953789486494
Sr1 Eu1 Se2,5.470796185926264
Sr1 Eu1 Si4,4.392890283039385
Sr1 Eu1 Te2,5.52783580809111
Sr1 Eu1 Tl2,7.947278939794721
Sr1 Eu3,4.7526773293304
Sr1 F1,3.33187220020051
Sr1 F2,4.133836694658418
Sr1 F3,4.032836469865181
Sr1 Fe1 As1 F1,4.866742499159453
Sr1 Fe1 Mo1 O5,4.199910603827969
Sr1 Fe1 O2,5.069882842912433
Sr1 Fe1 O3,5.305698953453972
Sr1 Fe2 As1 P1,5.791184443906422
Sr1 Fe2 As2,6.319998834487784
Sr1 Fe2 N2,5.9879706237436965
Sr1 Fe2 P2,5.229499395024167
Sr1 Fe2 S4,3.6072359591633374
Sr1 Ga1 Cu2,5.5684333865905815
Sr1 Ga1 Cu3 Se4,4.904777917317728
Sr1 Ga1 Ge1,4.967700207554004
Sr1 Ga1 Ge1 H1,4.905440293352701
Sr1 Ga1 Si1,4.224977327446255
Sr1 Ga1 Si1 H1,4.091701610414293
Sr1 Ga1 Sn1 H1,5.10724208693893
Sr1 Ga2,4.754548008729985
Sr1 Ga2 H2,4.810730677989001
Sr1 Ga2 Te4,5.136809487558428
Sr1 Ga4,5.57299925593879
Sr1 Ga4 Au3,9.22198172743443
Sr1 Gd1 Co1 O4,7.037677267794496
Sr1 Gd1 Ni1 O4,6.866995537463783
Sr1 Gd3,6.3873257422140925
Sr1 Ge1,4.525888585404171
Sr1 Ge1 O3,6.027906042529566
Sr1 Ge1 Te1 O6,5.052851231200532
Sr1 Ge2,4.939820019938128
Sr1 Ge2 Au2,9.331604456493643
Sr1 Ge2 Ir2,10.551184011364969
Sr1 Ge2 Pd2,7.295677176868866
Sr1 Ge2 Rh2,7.433118021875065
Sr1 Ge2 Ru2,7.353841548983773
Sr1 Ge3 Ir1,7.907495678525357
Sr1 Ge3 Pd1,6.449537276273672
Sr1 Ge3 Pt1,7.831418179512769
Sr1 H1 Br1,4.16034044687702
Sr1 H1 Br1 O1,3.5804549912779526
Sr1 H1 Cl1,3.4364753726144737
Sr1 H1 Cl1 O1,3.0464207072686733
Sr1 H1 I1,4.157115097856535
Sr1 H2,3.5372285987228667
Sr1 H3,3.2697929252079243
Sr1 H3 Pd1,5.740674227761231
Sr1 Hf1 Mg6,3.3405518123257263
Sr1 Hf1 N2,7.206595768897192
Sr1 Hf1 O3,7.34425703345636
Sr1 Hf1 Re2,13.808400346972988
Sr1 Hf2 Mo1,9.701496247054788
Sr1 Hg1,7.325554382616935
Sr1 Hg1 O2,6.293364398989576
Sr1 Hg1 O3,7.344072416468472
Sr1 Hg1 Pb1,8.712875253115888
Sr1 Hg2,8.943030898776703
Sr1 Hg2 Bi1,0.8220126742627188
Sr1 Hg2 Pb1,0.7849754400723382
Sr1 Hg3,10.028296877917985
Sr1 Ho1 O3,6.040663396361041
Sr1 I1 F1,4.50943518471678
Sr1 I2,3.7761411233405497
Sr1 In1 Au5,13.078431726409258
Sr1 In1 Cu3 Se4,4.894495957896203
Sr1 In1 Hg2,8.96270737489626
Sr1 In1 O3,5.555595225065164
Sr1 In2,5.762914418808582
Sr1 In2 Cu2,6.535569944803418
Sr1 In2 Hg2,8.324007720198228
Sr1 In2 Ir1,8.531581969619657
Sr1 In2 Pd1,6.94486227651549
Sr1 In2 Pt1,8.456746074682583
Sr1 In2 Rh1,7.0628185122417895
Sr1 In2 Te4,4.882913193963353
Sr1 In3,6.136750769294534
Sr1 In3 Au1,7.658659494877065
Sr1 In3 Hg1,7.171808344667642
Sr1 In4,5.992445631594602
Sr1 In5,5.973469514755592
Sr1 Ir1 N2,8.411212292114119
Sr1 Ir1 O3,8.518451756735805
Sr1 Ir2,13.426304696826278
Sr1 La1 Ag2,0.5639525090721087
Sr1 La1 Al1 O4,5.802906805049528
Sr1 La1 Au2,0.8572502133880592
Sr1 La1 Cd2,0.520937637335377
Sr1 La1 Co1 O4,6.188789376028636
Sr1 La1 Cu1 O4,6.2481972964645465
Sr1 La1 Fe1 O4,5.887594614670473
Sr1 La1 Ga1 O4,6.248073633508095
Sr1 La1 Hg2,8.423208941249912
Sr1 La1 Mg2,0.315794011479698
Sr1 La1 Mg6,2.707538419877641
Sr1 La1 Mn1 O3,5.780319995529296
Sr1 La1 Mn1 O4,5.893439948217952
Sr1 La1 Ni1 O4,6.227535688406763
Sr1 La1 Pt2,0.8364272033458777
Sr1 La1 Sc1 O4,5.3329506985098485
Sr1 La1 Tl1 Cu1 O5,7.356801903811997
Sr1 La1 Tl2,0.6214389162052045
Sr1 La1 Zn2,0.4884018150735056
Sr1 La1 Zr2,5.626663688122437
Sr1 La3,5.116761462166213
Sr1 Li1 Al1 Sb2,4.223753475843957
Sr1 Li1 H3,1.6317958382207567
Sr1 Li1 N1,3.2711547178089724
Sr1 Li1 Nd1 Co1 O4,5.576190196305243
Sr1 Li1 O3,3.961883403012005
Sr1 Li1 P1,3.063703578749416
Sr1 Li1 Sb1,3.400068175055444
Sr1 Li1 Si1,2.7588364956271576
Sr1 Li1 Tl2,0.5036713605700279
Sr1 Li2 Ca1,0.1379191141870575
Sr1 Li2 Ge1,0.1918971844148513
Sr1 Li2 In1,0.2477996923158396
Sr1 Li2 Pb1,5.325336209804693
Sr1 Li2 Si1,0.1567775380559782
Sr1 Li2 Sn1,3.935596029623138
Sr1 Li2 Tl1,0.3421194004114633
Sr1 Li4 P2,2.3467496023947207
Sr1 Lu1,5.6621430452187305
Sr1 Mg1,1.537873784960668
Sr1 Mg1 Cd2,0.3100860776937939
Sr1 Mg1 Hg2,0.5332347513776269
Sr1 Mg1 In3,5.250997194114821
Sr1 Mg1 O2,4.4363063194695584
Sr1 Mg1 O3,4.070787384514324
Sr1 Mg1 Pb2,0.5532875938500602
Sr1 Mg1 Si1,2.468468608511633
Sr1 Mg1 Sn1,3.4728054561303288
Sr1 Mg1 Tl2,7.365708177865979
Sr1 Mg2,1.5139168637143985
Sr1 Mg2 As2,3.730989653212117
Sr1 Mg2 Bi2,5.583068832892094
Sr1 Mg2 Ga2 N4,4.63372880748393
Sr1 Mg2 In2,4.235435403274222
Sr1 Mg2 N2,3.7066330667933087
Sr1 Mg2 Pd1,3.90750187116288
Sr1 Mg2 Sb2,4.083897669066742
Sr1 Mg3,2.206376226418445
Sr1 Mg3 Ge1 N4,3.95333122348121
Sr1 Mg3 O4,3.809338567841949
Sr1 Mg5,2.068423522679906
Sr1 Mg6 Al1,2.122826125561859
Sr1 Mg6 B1,2.0875149220253424
Sr1 Mg6 C1,2.161911707906799
Sr1 Mg6 Fe1,2.453306200416698
Sr1 Mg6 Ga1,2.4280328332747887
Sr1 Mg6 Mo1,2.914711083195848
Sr1 Mg6 Nb1,2.8066572236782426
Sr1 Mg6 Ni1,2.4284603066047223
Sr1 Mg6 Si1,2.2077558749936554
Sr1 Mg6 Ti1,2.324674330460732
Sr1 Mg6 W1,3.725400850561961
Sr1 Mg6 Zr1,2.614118685306707
Sr1 Mn1 Bi2,7.665397417655931
Sr1 Mn1 Ge1,4.867634263551665
Sr1 Mn1 P1 F1,4.01653936462842
Sr1 Mn1 Re2,12.757973344201735
Sr1 Mn1 Sb1 F1,4.943436323488302
Sr1 Mn1 Sb2,5.6074669242399935
Sr1 Mn1 Sn1,5.019582877630105
Sr1 Mn1 Te1 O6,4.732312130986709
Sr1 Mn2 As2,5.452101833714549
Sr1 Mn2 Ge2,5.9264787440552
Sr1 Mn2 N2,6.047346955498563
Sr1 Mn2 O6,4.130002695557706
Sr1 Mn2 P2,4.70565654039031
Sr1 Mn2 Sb2,5.163066985049941
Sr1 Mn2 Si1,4.623391229168517
Sr1 Mo1 O3,5.659054699524615
Sr1 N1,3.854517960980205
Sr1 N2,2.3165651437336257
Sr1 N2 Cl4,2.6341889050664524
Sr1 Nb1 Fe1 O6,4.439160132275428
Sr1 Nb1 N1 O2,5.4896287087667055
Sr1 Nb1 O3,5.550147917915039
Sr1 Nd1 Al1 O4,6.055780653099353
Sr1 Nd1 Co1 O4,6.437602416955302
Sr1 Nd1 Cr1 O4,6.120804986388285
Sr1 Nd1 Fe1 O4,6.100374137431689
Sr1 Nd1 Ga1 O4,6.480585382584666
Sr1 Nd1 Mn1 O4,6.117908324209578
Sr1 Nd1 Ni1 O4,6.474998289000041
Sr1 Nd1 O3,5.111835569658964
Sr1 Nd1 V1 O4,5.9646218945836
Sr1 Nd3,5.588673095945798
Sr1 Ni1 F6,4.246523886087486
Sr1 Ni1 Ge2,5.9831612561375325
Sr1 Ni1 Ir2,12.50437359164234
Sr1 Ni1 O2,4.965053228046559
Sr1 Ni1 O3,5.658340730472058
Sr1 Ni1 Sn2,6.318377970917608
Sr1 Ni1 Sn3,6.62337049296717
Sr1 Ni2 As2,6.541394661390447
Sr1 Ni2 Ge1,5.943042913839316
Sr1 Ni2 Ge2,6.425038586998117
Sr1 Ni2 N2,6.325665626593456
Sr1 Ni2 Sb2,6.848866135058537
Sr1 O1,4.114608368775767
Sr1 O2,4.561601010629373
Sr1 O3,4.1057177402538905
Sr1 O4,0.2434135025378914
Sr1 Os1 O3,8.503074601842126
Sr1 P1 Au1,7.359416023549624
Sr1 P1 Pt1,7.762597323851936
Sr1 P2 Os2,9.306179415940814
Sr1 P2 Pd2,6.6900132843545945
Sr1 P2 Rh2,6.296077716594872
Sr1 P2 Ru2,6.262845368373162
Sr1 P3,3.3482453344880247
Sr1 Pb1,6.518535625987226
Sr1 Pb1 Au2,0.8786908633089265
Sr1 Pb1 S2,5.3800052505708935
Sr1 Pb2 N2,8.158603671137103
Sr1 Pb3,9.133694752070644
Sr1 Pb3 S4,6.324167969719565
Sr1 Pd1,5.795310695068505
Sr1 Pd1 O3,6.09760384930354
Sr1 Pd2,7.960832959085343
Sr1 Pd3,8.45831393356891
Sr1 Pd5,8.926366703119927
Sr1 Pm1 Pt2,10.937553563865585
Sr1 Pm3,5.73831452400824
Sr1 Pr1 Al1 O4,5.934520907363106
Sr1 Pr1 Mn1 O4,6.004247988772054
Sr1 Pr1 Sc1 O4,5.433712366753841
Sr1 Pr1 V1 O4,5.874755017787567
Sr1 Pr3,5.347802594117772
Sr1 Pt1 O3,8.19084126274852
Sr1 Pt2,12.907233236122485
Sr1 Pt5,15.316131466032743
Sr1 Re1 O3,8.369426730912323
Sr1 Rh1 F6,4.55899137025067
Sr1 Rh1 O3,6.167951451627042
Sr1 Rh2,8.276096981224457
Sr1 Ru1 O3,4.405534976894925
Sr1 Ru2 O6,5.540267413692135
Sr1 S1,3.566052165542995
Sr1 S1 O4,3.237398218538772
Sr1 S2,3.4502647980005725
Sr1 S3,2.9603407163262347
Sr1 Sb1 Au1,7.991047455062614
Sr1 Sb1 O3,5.733048487761328
Sr1 Sb1 Pt1,8.149101487542737
Sr1 Sb2,5.635473205158239
Sr1 Sb2 O6,5.230440839088431
Sr1 Sb2 Pd2,7.409916925476726
Sr1 Sb2 Ru2,7.6654926784319075
Sr1 Sc1 Be1,2.803407718148026
Sr1 Sc1 Cu3 Se4,4.550745263585829
Sr1 Sc1 O3,4.225974288378024
Sr1 Sc1 Tl2,0.5276927435283836
Sr1 Se1,4.416867129856685
Sr1 Si1,3.451941632505662
Sr1 Si1 Ge1,4.242306820798079
Sr1 Si1 Ni1,4.427534070822728
Sr1 Si1 O3,5.371420069070963
Sr1 Si2,3.472602102241727
Sr1 Si2 Ag2,5.786011765300342
Sr1 Si2 Au2,8.775876477352856
Sr1 Si2 Pd2,6.28571749489309
Sr1 Si2 Pt2,9.178356141329528
Sr1 Si3 Au1,6.218035467193794
Sr1 Si3 Ni1,4.388389504574667
Sr1 Sm1 Al1 O4,6.272809912022055
Sr1 Sm1 Cl2 F2,4.9881762078722645
Sr1 Sm1 Co1 O4,6.639836560056817
Sr1 Sm1 Ni1 O4,6.698975162152617
Sr1 Sm3,5.992663746213463
Sr1 Sn1,4.849131236552712
Sr1 Sn1 Hg1,7.49460924625081
Sr1 Sn1 Hg2,0.6728363621384672
Sr1 Sn1 N2,5.6766396684202265
Sr1 Sn1 O3,6.061480890045354
Sr1 Sn1 P1,4.518851368192341
Sr1 Sn2 As2,5.486149864191504
Sr1 Sn3,6.190462171477802
Sr1 Sn3 Pd1,6.734148723671082
Sr1 Ta1 N1 O2,7.712157271297501
Sr1 Ta1 O3,7.815019078429382
Sr1 Ta2 Mn1,11.20116325034767
Sr1 Tb1,5.107951605772764
Sr1 Tb3,6.61895227555418
Sr1 Tc1 O3,6.143117993065528
Sr1 Te1,4.701970764493499
Sr1 Te1 Pd1,6.429621464566165
Sr1 Ti1 N2,4.596150182123056
Sr1 Ti1 O3,4.962107641877822
Sr1 Tl1,6.9498170868687685
Sr1 Tl1 Cu3 Se4,5.27132993846314
Sr1 Tl1 Hg2,9.839022439000788
Sr1 Tl1 O3,7.203327832753383
Sr1 Tl2,8.298017574458937
Sr1 Tl2 Cd1,8.609723393371493
Sr1 Tl2 In1,0.5723787422742197
Sr1 Tl2 Pd1,9.358044019072029
Sr1 Tl2 Pt1,10.758861919141404
Sr1 Tl3,9.058941860498882
Sr1 Tm1 O3,6.28884423301585
Sr1 V1 Cu3 Se4,4.7881294194188
Sr1 V1 O3,5.21885807260035
Sr1 W1 N1 O2,7.793234514068968
Sr1 W1 O3,7.689681846972675
Sr1 Y1,3.620481421143926
Sr1 Y1 Co1 O4,5.655819740579845
Sr1 Y1 Cu3 Se4,4.567132764872096
Sr1 Y1 Mg6,2.421450945762141
Sr1 Y1 Pb2,0.5876650772427404
Sr1 Y1 Pd2,0.5317696941186958
Sr1 Y1 Pt2,0.773524635284914
Sr1 Yb1,4.4727852084967
Sr1 Yb1 Eu2,5.202394237700445
Sr1 Yb1 O3,6.375576154367508
Sr1 Yb2 Eu1,5.648985430894434
Sr1 Yb3,5.656013334284082
Sr1 Zn1,3.97895525882099
Sr1 Zn1 As1 F1,5.180441033646168
Sr1 Zn1 Bi2,7.801274205185435
Sr1 Zn1 Ge1,4.892126300513834
Sr1 Zn1 In3,6.10617817561349
Sr1 Zn1 O3,5.294603309951961
Sr1 Zn1 O5,2.9715799219803767
Sr1 Zn1 Pb1,6.6040690070034085
Sr1 Zn1 Sb1 F1,5.429939078956504
Sr1 Zn1 Si1,4.108904507888789
Sr1 Zn1 Sn1,5.24402992356822
Sr1 Zn2,4.961626691887471
Sr1 Zn2 As2,5.301563193390653
Sr1 Zn2 Ge2,5.731251067897116
Sr1 Zn2 N2,5.894508491900712
Sr1 Zn2 P2,4.453666407674057
Sr1 Zn2 Sb2,5.474347107457304
Sr1 Zn5,5.987804511328823
Sr1 Zr1 Co1,5.5720629471476295
Sr1 Zr1 N2,4.930441152002601
Sr1 Zr1 O3,4.405798138641195
Sr1 Zr1 Zn1,4.788845800294944
Sr1 Zr2 Nb1,6.090677670204181
Sr2 Ag1 Bi1,0.506553650687674
Sr2 Ag1 Hg1,0.4771238055636626