Composition,Density
Ca1 Ho1 Zn2,6.002449017254678
Ca1 Ho2 Se4,5.68579697113893
Ca1 Ho2 Te4,5.975488001721578
Ca1 Ho3,6.770310498147222
Ca1 I1,4.068657795996525
Ca1 I2,3.3852585655729546
Ca1 I2 N6,3.988210279904089
Ca1 In1,4.4577485688871885
Ca1 In1 Ag2,0.4283624623884554
Ca1 In1 Au2,10.284134168580009
Ca1 In1 Cu4,7.103732315436888
Ca1 In1 Hg2,9.027706629646698
Ca1 In1 O3,4.6706241919788285
Ca1 In1 Pd2,0.5518081566036852
Ca1 In1 Rh2,0.6032756605216263
Ca1 In2,4.419133278640548
Ca1 In2 Au1,7.92034271185636
Ca1 In2 Cu1,6.074271208762362
Ca1 In2 N2,6.088350384265994
Ca1 In2 Ni1,6.236708091265643
Ca1 In2 Pd1,6.666016775858391
Ca1 In2 Pt1,8.273734821960552
Ca1 In2 Te4,5.301588121314889
Ca1 Ir1 N2,9.162176307688584
Ca1 Ir1 O3,7.532249004003523
Ca1 Ir2,12.88243980992693
Ca1 La1,3.818638894867969
Ca1 La1 Ag2,6.076926046223074
Ca1 La1 Al4,3.602349712350981
Ca1 La1 Au2,0.7420542674635698
Ca1 La1 Cd2,5.663824869844592
Ca1 La1 Cu2,0.6477733459486582
Ca1 La1 Fe1 O4,5.293152069360676
Ca1 La1 Ga1 O4,5.66288369008142
Ca1 La1 Ga2,0.2812507139482878
Ca1 La1 Hg2,8.368568589505779
Ca1 La1 Mg2,3.036121695122235
Ca1 La1 O3,4.123203254325017
Ca1 La1 Pb2,1.2595909923048976
Ca1 La1 Pd2,0.5988651498948457
Ca1 La1 Rh2,0.6157324567737875
Ca1 La1 Si4,3.757592994118852
Ca1 La1 Tl2,0.6055517059595393
Ca1 La1 Zn2,4.972475197638679
Ca1 Lu1 Hg2,10.074122089918868
Ca1 Lu1 Pd2,8.503599481003263
Ca1 Lu1 Rh2,9.024771883916454
Ca1 Lu2 Te4,6.28781264904805
Ca1 Mg1,1.623058814996659
Ca1 Mg1 Ag2,0.3642815659469248
Ca1 Mg1 Cd2,0.3035888546334115
Ca1 Mg1 Hg2,7.940591736320174
Ca1 Mg1 In2,0.2815279584476916
Ca1 Mg1 Ni4,5.803056315971546
Ca1 Mg1 O3,3.0390857534638096
Ca1 Mg1 S2,2.6007939993493143
Ca1 Mg1 Sn1,3.5153845026392734
Ca1 Mg1 Tl2,7.309194952350051
Ca1 Mg1 Zn2,0.2282604681126088
Ca1 Mg2,1.679889646620867
Ca1 Mg2 As2,3.332020470698587
Ca1 Mg2 Bi2,5.442553274512852
Ca1 Mg2 N2,2.885546666058231
Ca1 Mg2 Sb2,3.812302627850645
Ca1 Mg3,1.71333096503092
Ca1 Mg5,1.7218294975837098
Ca1 Mg6 B1,1.7756788910013193
Ca1 Mg6 C1,1.6527284757263687
Ca1 Mg6 Co1,2.254199101294938
Ca1 Mg6 Mo1,2.6431943936782365
Ca1 Mg6 Nb1,2.5021367587960577
Ca1 Mg6 Ni1,2.1858955607056707
Ca1 Mg6 W1,3.504783011322116
Ca1 Mg6 Zr1,2.355891075641441
Ca1 Mn1 F6,2.738094217519617
Ca1 Mn1 Fe1 Ge2,5.725028337675387
Ca1 Mn1 Ge1,4.564507843960312
Ca1 Mn1 N2,4.645502740109992
Ca1 Mn1 O2,4.13704074256398
Ca1 Mn1 O3,4.322045985981163
Ca1 Mn1 S2,3.2806969780556834
Ca1 Mn1 Sb2,5.50748969682382
Ca1 Mn1 Se2,4.5414228054285966
Ca1 Mn1 Si1,3.362405820543396
Ca1 Mn1 Sn1,4.706659969112035
Ca1 Mn2 As2,5.13489894387993
Ca1 Mn2 Bi2,6.58274693199367
Ca1 Mn2 Ge2,5.539080594028249
Ca1 Mn2 N2,4.087714803228663
Ca1 Mn2 O4,3.901728309336249
Ca1 Mn2 P2,4.160923702312904
Ca1 Mn2 Sb2,5.063069885534551
Ca1 Mn2 Te3,5.402128160904998
Ca1 Mn3 O4,4.574605789375607
Ca1 Mo1 F6,2.941024926723901
Ca1 N1,2.846866071805752
Ca1 N2,2.8877545079567786
Ca1 Nd1 Ag2,6.413860728650156
Ca1 Nd1 Al1 O4,5.4394313994202
Ca1 Nd1 Au2,9.666377629838664
Ca1 Nd1 Cd2,5.947897490306817
Ca1 Nd1 Co1 O4,5.880517188633664
Ca1 Nd1 Cr1 O4,5.515098082190865
Ca1 Nd1 Hg2,8.768012610929688
Ca1 Nd1 Rh2,7.639838579808784
Ca1 Nd1 Zn2,5.237097562726208
Ca1 Nd3,5.385381872478352
Ca1 Ni1,4.0773063879495615
Ca1 Ni1 B1 N1,4.307273065210247
Ca1 Ni1 F6,2.8750530765563065
Ca1 Ni1 Ge1,4.878289764738466
Ca1 Ni1 Ge1 H1,4.551071548581586
Ca1 Ni1 Ge2,5.416259469716561
Ca1 Ni1 H3,3.817822100997791
Ca1 Ni1 N1,4.185006622869205
Ca1 Ni1 O2,4.719312108848601
Ca1 Ni1 Te1,5.017729431555912
Ca1 Ni2,5.661732668886674
Ca1 Ni2 As2,6.107943722578609
Ca1 Ni2 Ge2,5.992976570508092
Ca1 Ni2 N2,4.250931937643644
Ca1 Ni2 P2,5.080156031782911
Ca1 Ni5,6.747575602063846
Ca1 Ni5 H1,6.470363991538867
Ca1 O1,1.966517235342912
Ca1 O2,2.840822249859205
Ca1 Os1 N2,9.135105684624966
Ca1 Os1 O3,7.486303590131466
Ca1 Os3,15.217666288738274
Ca1 P1 Au1,6.956807579110438
Ca1 P1 Pt1,7.289572191592508
Ca1 P2 Pd2,6.1455758752828
Ca1 P2 Rh2,6.390894512991742
Ca1 P2 Ru2,6.159745735428599
Ca1 P3,2.717692061163611
Ca1 Pb1,6.784425736643719
Ca1 Pb1 Au2,0.905814447848074
Ca1 Pb1 F6,3.6140280538406975
Ca1 Pb1 I4,4.457508700282878
Ca1 Pb1 Se2,5.883148099185475
Ca1 Pb3,8.989666135760892
Ca1 Pb3 Se4,6.8863121717154
Ca1 Pd1,5.534699774112412
Ca1 Pd1 Au2,0.7997827724991344
Ca1 Pd1 F6,3.5229367010161465
Ca1 Pd1 Pb1,8.142793825018197
Ca1 Pd2,6.209758965621811
Ca1 Pd2 N2,6.949301476461968
Ca1 Pd2 Pb1,0.8270517606623806
Ca1 Pd3 C1,7.856027456047484
Ca1 Pd5,8.54268185794521
Ca1 Pm1 Ag2,6.487268598236959
Ca1 Pm1 Au2,9.771503620247234
Ca1 Pm1 Cd2,6.043408095467166
Ca1 Pm1 Hg2,8.887175571205539
Ca1 Pm1 Mg2,3.2354631778363645
Ca1 Pm1 Pd2,7.271729834387786
Ca1 Pm1 Pt2,10.7689586601284
Ca1 Pm1 Rh2,7.746576392575664
Ca1 Pm1 Zn2,5.314470172470691
Ca1 Pm3,5.503917191394702
Ca1 Pr1 Ag2,6.267127856252011
Ca1 Pr1 Cd2,5.828561235817696
Ca1 Pr1 Co1 O4,5.723518862227211
Ca1 Pr1 Hg2,8.603843240269939
Ca1 Pr1 Rh2,7.473573602379711
Ca1 Pr1 Zn2,5.134887971162297
Ca1 Pr3,5.142134197204066
Ca1 Pt1 F6,4.574792430185248
Ca1 Pt2,12.401998775107955
Ca1 Pt5,15.076363948866549
Ca1 Re1 Bi1,9.372641905944697
Ca1 Re1 N2,9.06040107612768
Ca1 Re2 Si1,11.615691217205766
Ca1 Rh1 F6,3.371490994061668
Ca1 Rh1 N2,6.0794170126220095
Ca1 Rh1 O3,5.129345954756469
Ca1 Rh2,7.485835643863895
Ca1 Rh2 Pb1,0.7810162616198858
Ca1 Ru1 N2,6.062857412513531
Ca1 Ru1 O3,5.176309671364111
Ca1 Ru2 N2,7.072079307675309
Ca1 S1,2.5654994328554923
Ca1 Sb1 Au1,7.564147457161384
Ca1 Sb1 F6,3.1254132721932453
Ca1 Sb1 Pd2,0.6074028794582432
Ca1 Sb1 Rh2,0.6311884762295602
Ca1 Sb2,5.407818893399367
Ca1 Sb2 O6,5.036654903242316
Ca1 Sc1 Cu3 Se4,4.459668908144977
Ca1 Sc1 Hg2,0.597670902094675
Ca1 Sc1 In2,0.3108999475524141
Ca1 Sc1 O3,3.241227074842477
Ca1 Sc1 Rh2,0.5111101673100065
Ca1 Sc1 Tl2,0.5324463856228999
Ca1 Se1,2.750191298799716
Ca1 Si1,2.3771612189373754
Ca1 Si1 Au1,6.6611112363492255
Ca1 Si1 Ni2,4.535499796694939
Ca1 Si1 O3,4.10700725534391
Ca1 Si2,2.362147975614476
Ca1 Si2 Au2,8.386462300834685
Ca1 Si2 Ni2,4.624874698209226
Ca1 Si2 Pd2,5.768878740346547
Ca1 Si2 Rh2,5.914438596931461
Ca1 Si3 C4,2.897719550193994
Ca1 Si3 Ir1,5.9671737674723175
Ca1 Si3 Pt1,5.912420270718709
Ca1 Sm1 Ag2,6.640393460780118
Ca1 Sm1 Al1 O4,5.65152570686134
Ca1 Sm1 Al4,3.88481252600996
Ca1 Sm1 Cd2,6.169349951156693
Ca1 Sm1 Hg2,9.024310151402032
Ca1 Sm1 In2,5.642306276988739
Ca1 Sm1 Mg2,3.343073868891806
Ca1 Sm1 Pd2,7.429202140801866
Ca1 Sm1 Rh2,7.929262777325102
Ca1 Sm1 Zn2,5.444212288821621
Ca1 Sm2 S3,5.250262551592075
Ca1 Sm3,5.772186664863961
Ca1 Sn1,4.2934528683715465
Ca1 Sn1 Au1,7.986173562092111
Ca1 Sn1 Au2,10.252042286346065
Ca1 Sn1 F4,4.205747985736685
Ca1 Sn1 F6,2.914907962518643
Ca1 Sn1 Hg1,7.189918577513862
Ca1 Sn1 Hg2,0.6754328847773211
Ca1 Sn1 O3,4.1717948788434365
Ca1 Sn1 O6,2.481116995403756
Ca1 Sn1 Pd2,0.6082439802180609
Ca1 Sn1 Rh2,8.403265859152164
Ca1 Sn1 S3,3.00213030316611
Ca1 Sn2 Ir1,8.556224723871873
Ca1 Sn2 N2,4.697285363154747
Ca1 Sn2 Pd1,6.6877578270541616
Ca1 Sn2 Rh1,6.91823986842248
Ca1 Sn3,6.028707655309429
Ca1 Ta1 Tc1,8.004090291204896
Ca1 Ta2 O6,6.623522659262468
Ca1 Ta2 Tl1,11.672763299708263
Ca1 Tb1 Hg2,9.424666378755893
Ca1 Tb1 Pd2,7.815583467861597
Ca1 Tb1 Rh2,8.334089932597754
Ca1 Tb3,6.425236518900472
Ca1 Tc1 O3,5.059126951177647
Ca1 Te1,4.220815436976214
Ca1 Ti1 F6,2.3075033281047483
Ca1 Ti1 O3,3.836497971925326
Ca1 Ti1 S2,3.354832779300201
Ca1 Ti2 N2,3.14601259137897
Ca1 Ti2 O6,3.300724432341477
Ca1 Ti2 S4,3.071407833776002
Ca1 Tl1,6.802615094864166
Ca1 Tl1 Ag2,0.5808703285431025
Ca1 Tl1 Au2,0.8827802523562186
Ca1 Tl1 Cl3,3.7010696905684974
Ca1 Tl1 Cu3 Se4,5.279202312127609
Ca1 Tl1 F3,5.446106021762052
Ca1 Tl1 Hg2,0.721945224803408
Ca1 Tl1 Pd2,0.7103945371137032
Ca1 Tl2 Cd1,8.431897564825617
Ca1 Tl2 Pb1,0.698114738892654
Ca1 Tl3,9.241291063086052
Ca1 Tm1 Cd2,6.774909192522087
Ca1 Tm1 Hg2,9.858317706250835
Ca1 Tm1 In2,6.671040246972209
Ca1 Tm1 O3,5.473601075707323
Ca1 Tm1 Pd2,8.252816529273662
Ca1 Tm1 Pt2,11.99836514655338
Ca1 Tm1 Rh2,8.844273531725777
Ca1 Tm1 Zn2,6.137542311055485
Ca1 Tm2 Te4,6.148651209006752
Ca1 V1 Cu3 Se4,4.7028879289734
Ca1 V1 F6,2.602118823949693
Ca1 V1 O3,4.107568071709151
Ca1 V2 N2,3.574098177089182
Ca1 V2 O6,2.8783688924946143
Ca1 W1,9.031040792286069
Ca1 W1 F6,3.8869694637367136
Ca1 W1 O3,6.520245333558877
Ca1 W2 N2,8.368755590138376
Ca1 Y1,2.990605075154868
Ca1 Y1 Ag2,0.4251529384656293
Ca1 Y1 Al1 O4,4.531630755352519
Ca1 Y1 Cd2,0.3830143760013927
Ca1 Y1 Cu3 Se4,4.519575027508517
Ca1 Y1 Hg2,8.334801160619753
Ca1 Y1 In2,0.3996062568650941
Ca1 Y1 Mg2,0.1834458964726362
Ca1 Y1 Mg6,2.169399328295276
Ca1 Y1 O3,3.581335142433154
Ca1 Y1 Pb2,0.5998822728326675
Ca1 Y1 Pd2,0.5184067011327166
Ca1 Y1 Pt2,0.7924921162623102
Ca1 Y1 Rh2,6.874143833101947
Ca1 Y1 Tl2,0.5656341050644436
Ca1 Y1 Zn2,0.3354931906630232
Ca1 Y2 Te4,4.906419283375589
Ca1 Yb1 Al4,4.171516386979931
Ca1 Yb1 Cd2,6.505317422160149
Ca1 Yb1 Eu2,5.200792715019615
Ca1 Yb1 Ga2,6.010882720074995
Ca1 Yb1 Hg2,9.456691771578226
Ca1 Yb1 In2,6.480575094101801
Ca1 Yb1 Pb2,8.574724196200851
Ca1 Yb1 Pd2,8.243059716641627
Ca1 Yb1 Tl2,8.794516948570969
Ca1 Yb1 Zn2,5.874770722871092
Ca1 Yb3,5.594130089311639
Ca1 Zn1,2.264361564943383
Ca1 Zn1 Ag1,5.218440078394002
Ca1 Zn1 Au2,0.7222396948152648
Ca1 Zn1 Ge1,4.447898386511679
Ca1 Zn1 O2,3.777646096532332
Ca1 Zn1 O3,4.374759928378614
Ca1 Zn1 Pb1,6.598029194659168
Ca1 Zn1 S1 O1,3.5809587731961825
Ca1 Zn1 Se2,3.729530081290912
Ca1 Zn1 Si1,3.411061141786706
Ca1 Zn1 Sn1,4.914704326571721
Ca1 Zn2,4.415863952838209
Ca1 Zn2 As2,4.9598769141297945
Ca1 Zn2 Ge2,5.25541278882494
Ca1 Zn2 N2,5.210456297370589
Ca1 Zn2 P2,3.9807652790809263
Ca1 Zn2 P2 O2,3.589598775161728
Ca1 Zn2 Sb2,5.2503859766232654
Ca1 Zn2 Si2,4.104050672211263
Ca1 Zn3,4.815453464756205
Ca1 Zn3 O4,4.54753627978619
Ca1 Zn3 Se4,4.324524907005015
Ca1 Zn5,5.681811988903221
Ca1 Zr1 F6,2.536523832457956
Ca1 Zr1 N2,4.887887756343305
Ca1 Zr1 O3,4.135496361472064
Ca1 Zr1 Pd1,5.460372872458491
Ca1 Zr1 Rh2,7.490033422465951
Ca2 Ag1 Au1,6.445525717712438
Ca2 Ag1 Bi1,5.820531052648295
Ca2 Ag1 Ge1,4.401112499028847
Ca2 Ag1 Pb1,5.868720038528122
Ca2 Ag1 Pd1,0.3934739984619526
Ca2 Ag1 Pd2,5.906328014857144
Ca2 Ag1 Rh1,0.3449723801448868
Ca2 Ag1 Sn1,4.703307786263262
Ca2 Al1 Cd1,0.2453077877264988
Ca2 Al1 Tl1,0.3295525954791737
Ca2 Al1 Zn1,0.2236080189721196
Ca2 As1,3.103293056208447
Ca2 As1 Au1,6.0677894042587095
Ca2 As1 I1,3.709854253252261
Ca2 Au1 N1,5.9810524572789605
Ca2 Be3 Ge3,3.0624775211182227
Ca2 Bi1,4.743939496063763
Ca2 Bi1 Au1,7.260609549439543
Ca2 Bi7,8.857656087057112
Ca2 Br1 N1,3.4713697052449017
Ca2 Br2 F1,1.287300058423969
Ca2 Cd1 Ag1,0.3311927280044247
Ca2 Cd1 Au1,0.4406222331183989
Ca2 Cd1 Ga1,0.2974257771590792
Ca2 Cd1 Ge1,0.3018565791231011
Ca2 Cd1 Hg1,0.4035419693735034
Ca2 Cd1 In1,4.437329016280277
Ca2 Cd1 N2,4.160273269897053
Ca2 Cd1 Pb1,5.646803901221836
Ca2 Cd1 Pd2,5.745367750800778
Ca2 Cd1 Pt2,8.457209797212835
Ca2 Cd1 Rh1,0.3692480658837752
Ca2 Cd1 Sn1,4.511205892739617
Ca2 Cl2 F1,0.8236496671993112
Ca2 Co1 C1 N2 O2,3.258623605257972
Ca2 Co1 N2,3.581832388323854
Ca2 Co1 O3,2.3666110855949376
Ca2 Co1 W1,6.810800611535805
Ca2 Cu1 Ag1,4.016731322976368
Ca2 Cu1 Br2 O2,4.171489837215984
Ca2 Cu1 C1 N2 O2,3.224962382657565
Ca2 Cu1 C1 O5,3.4820191472497104
Ca2 Cu1 C2 O2,3.3403145009874686
Ca2 Cu1 Cl2 O2,3.554337150605878
Ca2 Cu1 O3,3.1346163278175423
Ca2 Cu1 Pd1,0.3836493014346153
Ca2 Cu1 Rh1,0.3969705665009988
Ca2 Cu1 S1 O2,2.8653242680323427
Ca2 Cu1 S2 Cl2,2.7799934527255696
Ca2 Cu1 S2 O2,3.44642865997282
Ca2 Fe1 As2 F1,3.2199799439788954
Ca2 Fe1 H6,2.7449920654936086
Ca2 Ga1 Ag1,0.3191321231457882
Ca2 Ga1 Cu2,4.387133937426091
Ca2 Ga1 Hg1,0.420673615592436
Ca2 Ga1 Si1,2.915362977075754
Ca2 Ga1 Sn1,3.86708574495568
Ca2 Ge1,2.6972555155768045
Ca2 Ge1 O4,4.251080651206797
Ca2 Ge1 Pd3,6.788948330148964
Ca2 H1 Br2,1.3248963488672445
Ca2 H1 Cl2,0.7227915471374008
Ca2 H1 I2,1.628342608597267
Ca2 H3 Br1,2.962348022942846
Ca2 H6 Os1,4.817191975771118
Ca2 H6 Ru1,3.307089444906287
Ca2 Hg1 Au1,0.5954416338424503
Ca2 Hg1 Bi1,0.542012919395413
Ca2 Hg1 Ge1,0.4304042957749594
Ca2 Hg1 Pb1,6.976756957617253
Ca2 Hg1 Pd1,0.5061944353372881
Ca2 Hg1 Pt1,0.6140676427373019
Ca2 I1 N1,3.9672613585746057
Ca2 In1 Ga1,0.2946580936564363
Ca2 In1 Hg1,0.2968762968768287
Ca2 In1 N1,3.875289845324338
Ca2 In1 Pb1,0.3974842796126107
Ca2 In3 Cu1,5.323057543291255
Ca2 Mg1,1.5948862507586503
Ca2 Mg1 Al1,0.1455613798305415
Ca2 Mg1 Cd1,0.2235535748613668
Ca2 Mg1 Ga1,0.1973883701175955
Ca2 Mg1 Hg1,0.3244720509536903
Ca2 Mg1 In1,3.111739520608253
Ca2 Mg1 N2,2.3921943722345023
Ca2 Mg1 Pb1,0.3188223093527739
Ca2 Mg1 Pd2,4.562164867068793
Ca2 Mg1 Pt2,7.336227248910277
Ca2 Mg1 Tl1,4.311451557560031
Ca2 Mg1 Zn1,0.1664291278210476
Ca2 Mn1 Si2,0.421491701254809
Ca2 N1,2.161682877827904
Ca2 N1 Cl1,2.779581585339957
Ca2 N1 F1,2.9862203833048544
Ca2 P1 Au1,0.4445279586103641
Ca2 P1 H1,0.2366145549344808
Ca2 P1 I1,3.198236055634216
Ca2 Pb1,4.282125566452387
Ca2 Pb1 Au1,0.5517435918934257
Ca2 Pb1 N2,5.508138970221824
Ca2 Pd1 Au1,6.830538066248632
Ca2 Pd1 N2,4.409313370531334
Ca2 Pd1 Pt1,0.6031916558300847
Ca2 Pd1 Rh1,0.4508475541249905
Ca2 Pr2 O5,5.092738416692094
Ca2 Pt1 Au1,0.6866110914182342
Ca2 Rh1,3.6032027726229816
Ca2 Ru1 N2,4.284852155677969
Ca2 Sb1,3.4882467069202248
Ca2 Sb1 Au1,6.217298772771227
Ca2 Si1,1.9514593069609545
Ca2 Si1 O4,3.743683366803676
Ca2 Si3 Ni1,3.0522398601375564
Ca2 Sn1,3.04335116976914
Ca2 Sn1 Au1,0.5028199005944716
Ca2 Sn1 Hg1,5.816779061509342
Ca2 Sn1 S4,2.457367755320897
Ca2 Ti1 O4,3.5787175646159763
Ca2 Tl1 Ag1,0.4093959013381502
Ca2 Tl1 Cd1,5.66526578134661
Ca2 Tl1 Ga1,0.325836650243054
Ca2 Tl1 Hg1,0.5086719774008752
Ca2 Tl1 In1,0.2864982440897287
Ca2 Tl1 Pb1,6.728659429091809
Ca2 Tl1 Sn1,0.4255567111234998
Ca2 Tl1 Zn1,0.3676079533722175
Ca2 Tl3 Pb3,9.193875699489531
Ca2 Zn1,2.200978214057103
Ca2 Zn1 Ag1,0.3068482812232494
Ca2 Zn1 Cd1,0.2656388959125801
Ca2 Zn1 Ga1,0.2830795381878252
Ca2 Zn1 Ga3,4.572149543211911
Ca2 Zn1 Ge1,0.2899991591431639
Ca2 Zn1 Hg1,5.466769263088977
Ca2 Zn1 In1,0.2743874530960574
Ca2 Zn1 N2,3.5222574535297544
Ca2 Zn1 Pb1,0.3728906296529117
Ca2 Zn1 Pd1,0.3498898926687938
Ca2 Zn1 Rh1,4.641242284387002
Ca2 Zn1 Sn1,0.3109466469599636
Ca2 Zn3 Ag1,4.860136588895709
Ca2 Zn3 Ga1,4.42509598894236
Ca3 Ag1,2.88520147871786
Ca3 Al2 Ge2,3.018055801660873
Ca3 Al2 Si2,2.226696672581113
Ca3 As1 Br3,3.400798193636619
Ca3 As1 Cl3,2.586208708953628
Ca3 As1 N1,2.191777030898736
Ca3 As1 P1,2.352024772359991
Ca3 As2,2.774986200743624
Ca3 Au1 N1,4.835878841491963
Ca3 B1 N3,2.7586409839279624
Ca3 Bi1 As1,3.3692876864729
Ca3 Bi1 N1,2.84679030468122
Ca3 Bi1 P1,3.0339580993485185
Ca3 Bi1 Sb1,3.7214153000906327
Ca3 Bi2,4.373636753216939
Ca3 Cd1,2.8123375584917496
Ca3 Cd1 O4,4.397998080362771
Ca3 Dy1,3.0544742215400684
Ca3 Eu1,2.2773356815825574
Ca3 Fe2 N4,3.252136567289662
Ca3 Ge1 N1,3.060417438081753
Ca3 Ge1 O1,3.2513011233366416
Ca3 Hg1,4.015671310250916
Ca3 Ho1,3.09900012919166
Ca3 In1,2.9681797446011244
Ca3 Lu1,3.18010284634097
Ca3 Mg1,1.58892108123717
Ca3 Mn1,2.2756100984059646
Ca3 N2,2.527201317199486
Ca3 Nd1,2.81438309414823
Ca3 Os1,5.1364697953132605
Ca3 P1 Cl3,2.2935316521388778
Ca3 P1 N1,1.8532334987923176
Ca3 P2,2.020551224172423
Ca3 Pb1,4.14614050454804
Ca3 Pb1 N1,2.6862148111341395
Ca3 Pb1 O1,4.8966145234725085
Ca3 Pb1 Se4,4.824349336569916
Ca3 Pm1,2.8280545512835453
Ca3 Sb1 As1,2.7681472027088563
Ca3 Sb1 N1,2.227459972134415
Ca3 Sb1 P1,2.401425972323414
Ca3 Sb2,3.128047648626174
Ca3 Si1 Br2,2.359113572144488
Ca3 Sm1,2.9156438088108136
Ca3 Sn1,3.132244769465976
Ca3 Sn1 N1,2.0482969832020546
Ca3 Sn1 O1,3.708802391356131
Ca3 Tb1,2.9818538476607035
Ca3 Tl1,4.0315702355438585
Ca3 Tl1 N1,4.62535546395444
Ca3 V1,2.1531035023862093
Ca3 W1,4.28813883619456
Ca3 Y1,2.189787291620134
Ca3 Zn1,2.2476893502237187
Ca3 Zn1 Se4,3.2038236157206064
Ca4 As2 O1,3.3517070047227286
Ca4 Bi2 O1,5.208164712971694
Ca4 Cd3 Au1,5.272016688822778
Ca4 Ga1 Si3,2.6630552929754074
Ca4 Ga1 Sn3,4.086140034833863
Ca4 P2 O1,2.5741731195367654
Ca4 Sb2 O1,3.8343036009007534
Ca4 Zn1 Ag3,4.200875382601514
Ca5 Mg1,1.5783297671658094
Ca6 Ge2 O1,2.993319557007862
Ca7 Ge1,2.0125470095934275
Cd1,8.018924852597033
Cd1 Ag1,9.28423275787772
Cd1 Ag1 Au2,1.035773427699838
Cd1 Ag1 O2,7.646034425444811
Cd1 Ag1 Pd2,10.481712569615045
Cd1 Ag1 Sb1,7.571743461499784
Cd1 Ag2 Au1,11.615630208515803
Cd1 Ag2 I4,4.945339935418756
Cd1 Ag2 Sn1 S4,4.659150342317154
Cd1 Ag2 Sn1 Se4,5.3910184335305695
Cd1 Ag3,9.627492166982444
Cd1 As1 P1,4.889725280736119
Cd1 As1 Pd5,10.24376356430593
Cd1 As1 Pt5,16.41244378508657
Cd1 As2,5.491634077470134
Cd1 As2 O6,5.672598365331984
Cd1 As3,6.8377387316126725
Cd1 Au1,13.044670832540817
Cd1 Au1 O2,9.314401331795084
Cd1 Au3,15.570862676320909
Cd1 B1 O3,6.621547143902192
Cd1 B2,3.4903686104871814
Cd1 Bi1 Br1 O2,7.18584809040806
Cd1 Bi1 I1 O2,7.45490248589109
Cd1 Bi3,10.093279310066269
Cd1 Br2,4.412564447762295
Cd1 Br2 N2,3.369354875207524
Cd1 C1,5.922981461882066
Cd1 C1 N2,3.5660092181113563
Cd1 C1 O3,4.046466013647906
Cd1 Cl1 O1,4.52274324113624
Cd1 Cl2,3.139371720914282
Cd1 Cl6,0.1374619623673142
Cd1 Co1 Cu3 Se4,5.754743802542525
Cd1 Co2 N2,6.351687389168753
Cd1 Co3 N1,8.78850561163403
Cd1 Cu1 N1,6.2518619200041625
Cd1 Cu1 Pd2,0.7419919829505731
Cd1 Cu1 Sb1,6.99746778036311
Cd1 Cu2 Ge1 Se4,5.453356724399745
Cd1 Cu2 Ge1 Te4,5.784150512924865
Cd1 Cu2 Rh1,0.7074597420009332
Cd1 Cu2 Se2,6.799460608540519
Cd1 Cu2 Si1 Te4,5.638840532682968
Cd1 Cu2 Sn1 S4,4.658629964504415
Cd1 Cu2 Sn1 Se4,5.518356392281322
Cd1 Cu2 Sn1 Te4,5.826013865948912
Cd1 Cu3,8.987292559610378
Cd1 Cu3 Ni1 Se4,5.851403019036999
Cd1 F2,6.029135394724406
Cd1 Fe1 Rh2,0.7455165055382762
Cd1 Fe1 S2,4.247406421780452
Cd1 Fe2 N2,6.546713452475724
Cd1 Ga1 Cu3 Se4,5.557063065737977
Cd1 Ga1 Pd2,0.7519134570547432
Cd1 Ga1 Rh2,10.38600860953033
Cd1 Ga2 S4,3.819597588998236
Cd1 Ga2 Se2 S2,4.421628971812413
Cd1 Ga2 Se4,4.96885063625915
Cd1 Ga2 Te4,5.355214397260852
Cd1 Ge1 As1 P1,4.903373004818047
Cd1 Ge1 As2,5.265794832921725
Cd1 Ge1 N2,6.546228294212453
Cd1 Ge1 O3,7.150943527391868
Cd1 Ge1 P2,4.308703823412609
Cd1 Ge3,6.585288755047276
Cd1 H1,6.413502300551498
Cd1 H1 Cl1 O1,4.3498937482884354
Cd1 H1 Cl3,2.568143881333393
Cd1 H1 O1 F1,5.114875989286433
Cd1 H2 O2,4.2874037007303
Cd1 Hg1 O2,8.263285512356909
Cd1 Hg1 Pd2,0.9294272818735252
Cd1 Hg1 S4,4.505031645939408
Cd1 Hg1 Se2,6.430220149153157
Cd1 Hg1 Te2,6.410256318738219
Cd1 Hg2,10.364265035824197
Cd1 Hg2 Te4,7.712771916811789
Cd1 Hg3,10.28545692719009
Cd1 Hg3 Te4,6.879153351372383
Cd1 I1 Br1,4.854189250576384
Cd1 I2,4.982262459980732
Cd1 I4 N4,3.6388097129337726
Cd1 In1,7.249754593023246
Cd1 In1 Ag1 Te3,5.558795046763238
Cd1 In1 Ag2,0.7086966395426106
Cd1 In1 As1 Se1,5.303639071165139
Cd1 In1 Cu3 Se4,5.6068195367388975
Cd1 In1 Ga1 S4,3.8963687135273473
Cd1 In1 Hg2,0.7980501792520864
Cd1 In1 Pd2,10.253857518925091
Cd1 In1 Rh2,10.60736810022409
Cd1 In1 S2,5.478444063184925
Cd1 In2 Bi1,0.7497713290808158
Cd1 In2 Ga1,0.5959531947009086
Cd1 In2 Hg1,0.7004572680600556
Cd1 In2 Se2 S2,4.57286067075055
Cd1 In2 Se4,5.141093793514963
Cd1 In2 Sn1 Au2,9.483842280794974
Cd1 In2 Te4,5.419348265795385
Cd1 In3,7.004703041086342
Cd1 In3 Te4 As1,5.337761037467043
Cd1 Ir1 O3,9.478265062669584
Cd1 Ir1 Ru1,11.967193400689196
Cd1 N1,6.161304729823045
Cd1 N2 Cl2,2.604064353774318
Cd1 Ni1 O2,7.1412322574032085
Cd1 Ni1 P1,6.155903568095941
Cd1 Ni3 C1,8.634877406888368
Cd1 Ni3 N1,8.803847777854688
Cd1 O1,6.22806858747616
Cd1 O2,5.466225590319338
Cd1 Os1 O3,9.498405606100684
Cd1 P1 Os2,13.838004744433553
Cd1 P1 Pd5,10.078949490538218
Cd1 P1 Pt5,16.390494712037167
Cd1 Pb1 F6,5.091124954774478
Cd1 Pb1 S2,6.568927945665678
Cd1 Pb2 Cl2 O2,6.439247833462596
Cd1 Pb2 N2,9.303348490848569
Cd1 Pb3,10.079199265312957
Cd1 Pb3 Se4,7.633788987099638
Cd1 Pd1,10.307512923921331
Cd1 Pd1 Au2,1.0616589998095851
Cd1 Pd1 F6,4.726393425378331
Cd1 Pd2 Au1,0.9580658232847826
Cd1 Pd2 O3,6.857784665916895
Cd1 Pd2 Pb1,0.86039223797636
Cd1 Pd2 Pt1,0.9820678753038968
Cd1 Pd3,10.807788481874084
Cd1 Pd5 Se1,10.138136725675338
Cd1 Pt1,14.47374823457984
Cd1 Pt1 F6,5.883859425690527