Composition,Density
Li3 Co1,2.3514191199712347
Li3 Cr1,1.649669395900681
Li3 Cr1 S4,1.5941353627731547
Li3 Cu1,2.3194214191671763
Li3 Cu1 O1 F3,3.6194359990700846
Li3 Cu2 O4,3.51724789857354
Li3 Dy1,3.249193776608842
Li3 Dy1 Sb2,5.521282980730407
Li3 Er1,3.405595473610445
Li3 Eu1,2.4736086919780256
Li3 Fe1,2.074984392210271
Li3 Fe1 O4,3.318163115709486
Li3 Ga1,2.32450983316232
Li3 Ga2,3.489024203382992
Li3 Gd1,3.288260653447388
Li3 Gd1 Bi2,7.037071743547766
Li3 Ge1,2.5704977087078986
Li3 H3 N2,1.2979742705155877
Li3 Hg1,5.154847278509749
Li3 Ho1,3.3411617701342435
Li3 Ho1 Sb2,5.578881290353679
Li3 In1,2.9951548237244547
Li3 In2,4.325351175948129
Li3 La1,2.5695758032846987
Li3 La1 As2,4.415858511830693
Li3 La1 Bi2,6.422843419772695
Li3 La1 P2,3.442518754641281
Li3 La1 Sb2,4.804447888547536
Li3 Lu1,3.645063596267896
Li3 Mg1,0.9193019973469982
Li3 Mg5,1.383378067865053
Li3 Mn1 As2,3.486004315142112
Li3 Mn1 O4,3.3293083774839625
Li3 Mn1 P2,2.5944009775710524
Li3 Mo1,2.9952323856449428
Li3 N1,1.2886089547430537
Li3 N2,1.396533825312444
Li3 Nb1,2.6798866337025404
Li3 Nb1 O4,3.951811515780362
Li3 Nb1 S4,1.76591601889505
Li3 Nd1,2.779435793947201
Li3 Nd1 As2,4.668867627832761
Li3 Nd1 Sb2,5.009778080403786
Li3 Nd2 Sb3,4.603581769846155
Li3 Ni1,2.310435473733023
Li3 P1,1.4622821363896052
Li3 Pb1,5.0563921373705565
Li3 Pd1,3.5538611926903427
Li3 Pm1,2.785391438955532
Li3 Pr1,2.6974745694926874
Li3 Pr1 Bi2,6.612016942521922
Li3 Pr1 Sb2,4.936978466898634
Li3 Pr2 Sb3,4.539523692209171
Li3 Pt1,6.372668380058292
Li3 Re1,5.993773979894165
Li3 Rh1,3.6859665978198897
Li3 Sb1,2.97798301925688
Li3 Sb1 S3,2.801749515722752
Li3 Sb1 S4,1.922152707621009
Li3 Sc1,1.3169654695415018
Li3 Sm1,2.9016048441340274
Li3 Sm1 Bi2,6.933921971239857
Li3 Sm1 Sb2,5.183425368843244
Li3 Sn1,3.260207541975245
Li3 Ta1 O4,5.936820554652662
Li3 Tb1,3.157054084763256
Li3 Tc1,3.303971700181148
Li3 Te1,3.213994216331587
Li3 Tl1,5.009351078685385
Li3 Tl2 Cd1,7.415193161170105
Li3 Tm1,3.461177802758238
Li3 V1 O3 F2,2.5406820792070635
Li3 V1 S4,1.5725145341705542
Li3 W1,5.306528259909113
Li3 Y1,1.953653941148782
Li3 Y1 Bi2,6.323354903908516
Li3 Y1 Sb2,4.5490456073055645
Li3 Yb1,3.0202109909455266
Li3 Zn1,2.126551547478474
Li3 Zr1,2.483711237445001
Li4 C1 O4,1.1894295677499824
Li4 Fe1 N2,1.9943370289829323
Li4 H4 Rh1,2.766687642882503
Li4 Mg1,0.8356094466106552
Li4 N1 Cl1,1.6644224483032035
Li4 N1 O1,1.770613423406177
Li4 Nb1 O4,3.076738803276584
Li4 Ti1 S4,1.785984866280311
Li4 Zn1 Cd3,4.932960901374358
Li4 Zr1 Ge2,3.5707814162052296
Li5 B4,1.1916012195369463
Li5 Br2 N1,2.451672634665652
Li5 Cu1 S1 O2,2.330040428230853
Li5 Cu2 Ge2,4.088668098866654
Li5 Ga4,3.760162948192507
Li5 In4,4.628584853152712
Li5 Mg1,0.7938122695188502
Li5 N1 Cl2,1.7832979551292885
Li5 Sb1 S1,2.636287901622821
Li5 Sn2,3.555816317286529
Li5 Tl1 In1,4.476918175165663
Li5 Tl2,5.534063942497406
Li6 Sb1 S2,2.381000664992235
Li7 Pb2,4.575943291949709
Lu1,9.732540598338614
Lu1 Ag1 Ge1,9.79825607449421
Lu1 Ag1 Hg2,13.123876415073642
Lu1 Ag1 O2,8.244932754048037
Lu1 Ag1 Pb1,11.16243484283094
Lu1 Ag1 S2,6.703630397226188
Lu1 Ag1 Sn1,9.546044960649589
Lu1 Ag1 Te2,7.104707138671511
Lu1 Ag2,10.3940995785073
Lu1 Ag3,10.217402981797411
Lu1 Ag4,10.46378349741054
Lu1 Al1 Ag2,8.997258426352104
Lu1 Al1 Au1,10.89772465164632
Lu1 Al1 Cu1,8.333599273313025
Lu1 Al1 Cu2,8.691812888790833
Lu1 Al1 Ge1,7.780347014977788
Lu1 Al1 Ni1,8.328676637575569
Lu1 Al1 O3,8.346949970457588
Lu1 Al1 Pd1,8.897154482762527
Lu1 Al1 Si1,6.789507869830453
Lu1 Al2,6.502480539556319
Lu1 Al2 Ge2,6.070413166906527
Lu1 Al2 Ni1,6.9964691941161705
Lu1 Al2 Pd5,9.997997538568912
Lu1 Al3,5.620708533458666
Lu1 As1,8.930011234175058
Lu1 Au1,13.996217974443358
Lu1 Au2,15.447547033659133
Lu1 Au3,16.28044979855784
Lu1 Au4,16.772647205483327
Lu1 B1 C1,10.94767520010619
Lu1 B1 Pd3,10.650757092134665
Lu1 B1 Rh3,11.273843441143349
Lu1 B2,9.640357900288546
Lu1 B2 Ir3,15.926598466068288
Lu1 B2 Os3,15.929347425938245
Lu1 B2 Rh3,10.63857721824372
Lu1 B2 Ru3,10.55534359582512
Lu1 B6,5.881855187559239
Lu1 Bi1,10.501974190200515
Lu1 Bi1 Pd1,11.04082846502093
Lu1 Bi1 Pd2,12.187765312554758
Lu1 Bi1 Pt1,12.977134348641853
Lu1 Bi1 Te3,7.260919716699134
Lu1 Bi2 Br1 O4,8.774656788566745
Lu1 Bi2 Cl1 O4,8.57199460348832
Lu1 Bi2 I1 O4,8.81156484290883
Lu1 Bi3,11.042693496610775
Lu1 Br1,7.610492628537964
Lu1 Br1 O1,7.259893515382
Lu1 Br3,3.975153418852004
Lu1 C2,8.176840368088383
Lu1 Cd1,9.612263104485534
Lu1 Cd1 Ag2,10.064036300157596
Lu1 Cd1 Hg2,12.487306648522924
Lu1 Cd1 Ni4,10.281346559791048
Lu1 Cd1 Pd2,11.009394644165637
Lu1 Cd1 Pt2,14.953534691656731
Lu1 Cd1 Rh2,11.52543677611822
Lu1 Cd2,8.22527999253662
Lu1 Cd3,9.125910868675357
Lu1 Cl3,3.1027913272925915
Lu1 Co1 C1,9.46066182098275
Lu1 Co1 C2,9.40361056124068
Lu1 Co1 Ge2,9.008763107433277
Lu1 Co2,11.00089426267747
Lu1 Co2 Ge2,9.399076884231192
Lu1 Co2 Sn1,10.675906821734912
Lu1 Co3 B2,9.707504911019516
Lu1 Cr2 Si2,7.228695032217235
Lu1 Cu1 As2,8.903187351318456
Lu1 Cu1 Ge1,8.952431973937506
Lu1 Cu1 Pb1,11.286075531356913
Lu1 Cu1 S2,6.400668442249266
Lu1 Cu1 Sb2,9.058148704220992
Lu1 Cu1 Se2,7.215055501265846
Lu1 Cu1 Si1,8.395027936287924
Lu1 Cu1 Sn1,8.882537588150859
Lu1 Cu1 Te2,8.016646897232258
Lu1 Cu2,9.899257914364393
Lu1 Cu2 S2,7.338273350440327
Lu1 Cu2 Si2,7.774834139193357
Lu1 Cu5,9.64545837050102
Lu1 F3,6.925965005715767
Lu1 Fe1 C2,9.120135150318614
Lu1 Fe1 Cu1,10.382410561288664
Lu1 Fe1 Cu1 O4,6.957247284112161
Lu1 Fe1 Ge2,8.89381460208176
Lu1 Fe2,10.43459918377121
Lu1 Fe2 B2,9.21336931056207
Lu1 Fe2 O4,6.600523215083746
Lu1 Fe2 Si2,7.892055907233272
Lu1 Ga1,9.024010319405171
Lu1 Ga1 Ag1,9.490614397995367
Lu1 Ga1 Au1,12.135734944325876
Lu1 Ga1 Co1 O4,7.122993314565709
Lu1 Ga1 Cu1 O4,7.304549566545189
Lu1 Ga1 Cu2,9.696755683177289
Lu1 Ga1 Ni2,10.134868438375486
Lu1 Ga1 O3,8.816625421750299
Lu1 Ga1 Pd2,10.867531174107496
Lu1 Ga1 Rh2,11.546562148513472
Lu1 Ga2,8.910796567773254
Lu1 Ga2 Ni1,9.281117507469135
Lu1 Ga2 Pd1,9.622887572335422
Lu1 Ga3,8.472409289829647
Lu1 Ga5 Co1,8.102046068264398
Lu1 Ge1 Au1,12.046468693089352
Lu1 Ge1 O3,8.429584418052782
Lu1 Ge2,8.733950918906396
Lu1 H1 Cl1,6.575263503561244
Lu1 H1 O2,7.973282724560934
Lu1 H1 Se1,9.01569489377142
Lu1 H2,9.28313786515034
Lu1 H3,9.476437806945183
Lu1 Hf1 Co2,11.83916161868074
Lu1 Hf1 Ir2,16.785491060290774
Lu1 Hf1 Rh2,12.747511702749474
Lu1 Hf1 Ru2,13.048031690312856
Lu1 Hg1,12.76340720277349
Lu1 I1 O1,7.160364847093249
Lu1 I3,4.347721177150841
Lu1 In1,9.556224511041
Lu1 In1 Ag2,10.077593183514594
Lu1 In1 Au1,12.024487213100768
Lu1 In1 Au2,13.630260352033972
Lu1 In1 Co4,10.11710907113023
Lu1 In1 Cu2,9.851871352713776
Lu1 In1 Ni1,9.931765828984942
Lu1 In1 Ni2,10.420422963683238
Lu1 In1 Ni4,10.16347050528495
Lu1 In1 Pd1,10.261576956354732
Lu1 In1 Pd2,10.999703750636767
Lu1 In1 Pt1,12.64641482304724
Lu1 In1 Pt2,14.868078909935608
Lu1 In1 Rh2,11.577375372198045
Lu1 In2,9.0084954004086
Lu1 In3,8.800733510797421
Lu1 Ir1,16.135682693952617
Lu1 Ir2,17.491264819216028
Lu1 Mg1,6.386852520311816
Lu1 Mg1 Ag2,8.297554583478837
Lu1 Mg1 Au2,12.253304646893746
Lu1 Mg1 Cd2,7.735998502103847
Lu1 Mg1 Hg2,11.102248906536271
Lu1 Mg1 In1,7.062454591932617
Lu1 Mg1 Pd2,9.236769076667976
Lu1 Mg1 Rh2,9.82159994564678
Lu1 Mg1 Tl1,8.992797290248049
Lu1 Mg1 Tl2,9.95261242784679
Lu1 Mg1 Zn2,7.084083330799051
Lu1 Mg2 Sc1,4.520596891072641
Lu1 Mg3,4.213308654274487
Lu1 Mn1 In1,8.663416020626174
Lu1 Mn1 Rh2,11.011874782880543
Lu1 Mn2 Ge2,8.712303600680295
Lu1 Mn2 Si2,7.456859275531669
Lu1 Mn3,8.510600744357514
Lu1 N1,11.663423328849207
Lu1 Nb1 Ru2,11.410678581016846
Lu1 Ni1,10.371455936386424
Lu1 Ni1 B1 C1,9.22360692471969
Lu1 Ni1 Bi1,11.205767475851676
Lu1 Ni1 C2,9.207403443008785
Lu1 Ni1 Ge2,8.95755759745991
Lu1 Ni1 Pb1,12.021433365629544
Lu1 Ni1 Sb1,9.62670991333428
Lu1 Ni2,11.057060719801004
Lu1 Ni2 B2 C1,8.54504130524706
Lu1 Ni2 Ge2,9.209600540240372
Lu1 Ni2 Sn1,10.46298983749559
Lu1 Ni3,10.706490486746844
Lu1 Ni4 Au1,12.173901626574388
Lu1 Ni4 Sn1,10.273224048506128
Lu1 Ni5,9.820048388813063
Lu1 O2,8.210136637249322
Lu1 O3,9.01599006222064
Lu1 Os3,18.97882028278055
Lu1 P1,8.041799915861079
Lu1 P1 Pt1,12.06922090576975
Lu1 Pb2,11.255144358751824
Lu1 Pb3,11.44098006267272
Lu1 Pd1,11.47258211372487
Lu1 Pd1 O3,8.782822082118303
Lu1 Pd2 Pb1,12.429315762002972
Lu1 Pd3,12.069839043228669
Lu1 Pt1,14.5804972796655
Lu1 Pt3,18.616371449912947
Lu1 Re1 O3,10.972236067625172
Lu1 Re1 Tc2,14.148654071481433
Lu1 Rh1,12.193306704540737
Lu1 Rh1 O3,8.955629658015384
Lu1 Rh2,12.039186412457042
Lu1 Rh2 Pb1,13.1167939073448
Lu1 Rh3,12.442282243401042
Lu1 Rh3 C1,11.50305739480681
Lu1 Ru1,12.38301956150558
Lu1 Ru3,12.297073583217664
Lu1 Ru3 C1,11.54509917710078
Lu1 S1,8.808445912635673
Lu1 S1 Br1,4.689022951448475
Lu1 S1 F1,6.671465533910488
Lu1 S1 I1,6.359562110258149
Lu1 S2,6.848053061403785
Lu1 Sb1,8.678031534825017
Lu1 Sb1 Pd2,11.001600045148258
Lu1 Sb1 Pt1,11.70752397903142
Lu1 Sb1 Rh2,11.649514263291676
Lu1 Sb1 Ru2,12.03403767444986
Lu1 Sb2,7.768486468041948
Lu1 Sb3,8.369355367133101
Lu1 Sc1 Co2,8.627410180610374
Lu1 Sc1 Cu2,7.737303139437294
Lu1 Sc1 Hg2,11.09973989952598
Lu1 Sc1 Ir2,14.009827861919556
Lu1 Sc1 Pd2,9.291748004451748
Lu1 Sc1 Rh2,9.852044962728227
Lu1 Sc1 Ru2,9.984155142327428
Lu1 Sc1 Zn2,7.235537839337336
Lu1 Se1,9.416341202058495
Lu1 Se1 I1,0.2125321898344925
Lu1 Se2,8.325897137392094
Lu1 Si1,8.337415518390268
Lu1 Si1 Ag1,8.941749618613342
Lu1 Si1 Au1,11.442774747999827
Lu1 Si1 O3,8.362076567951654
Lu1 Si2,6.981247968454611
Lu1 Si2 Ni1,7.6778778873665585
Lu1 Si2 Ni2,7.961147906817852
Lu1 Si2 Os2,12.245469722405089
Lu1 Si2 Pd2,8.72029223560403
Lu1 Si2 Pt2,11.71873907592335
Lu1 Si2 Rh2,8.967641810059613
Lu1 Si2 Ru2,8.777116988666759
Lu1 Si3,6.350281884960529
Lu1 Sn1 Au1,11.050532149870236
Lu1 Sn1 Ir1,13.002873437527864
Lu1 Sn1 Pd1,10.456258360795928
Lu1 Sn1 Pd2,11.081771287787682
Lu1 Sn1 Pt1,12.746018780061998
Lu1 Sn1 Rh1,10.725040480071009
Lu1 Sn1 Rh2,11.634704761758975
Lu1 Sn1 Ru2,11.732959257389082
Lu1 Sn2,8.936228626180029
Lu1 Ta1 Os2,17.779606555527458
Lu1 Ta1 Ru2,13.616237571932748
Lu1 Ta3,14.166601685042377
Lu1 Tc2 W1,13.762885037537298
Lu1 Te1,8.972026162786815
Lu1 Te2,8.40588449460131
Lu1 Te3,7.307334446494194
Lu1 Ti1 Ge1,8.124935980949815
Lu1 Ti1 Si1,7.091532993845764
Lu1 Ti2 Ga4,7.441271512379908
Lu1 Tl1,12.091773226855969
Lu1 Tl1 O2,10.450058095159898
Lu1 Tl1 Rh2,13.303300605155778
Lu1 Tl1 S2,7.227154255738362
Lu1 Tl1 Se2,7.832622536873429
Lu1 Tl1 Te2,7.712942760056126
Lu1 Tl3,12.155747574765952
Lu1 V1 O3,7.947822037687013
Lu1 Zn1,9.334024846797478
Lu1 Zn1 Cu1 As2,7.816088473130648
Lu1 Zn1 Fe1 O4,6.825677403719761
Lu1 Zn1 Pd1,10.025414215716731
Lu1 Zn1 Pd2,10.791368751258846
Lu1 Zn1 Rh2,11.365082938162994
Lu1 Zn1 Sn2,8.692990635661694
Lu1 Zn2,8.808862839641039
Lu1 Zr1,8.4742339438771
Lu1 Zr1 Co2,9.417263305175483
Lu1 Zr1 Ru2,10.77647730321395
Lu1 Zr1 Sb1,8.707183449999489
Lu1 Zr3,7.539788069698728
Lu2 Ag1 Au1,12.20877971946944
Lu2 Ag1 Hg1,11.61256392363963
Lu2 Ag1 Ir1,13.189082681403589
Lu2 Ag1 Os1,13.355863267686722
Lu2 Ag1 Pt1,12.812935651432989
Lu2 Ag1 Ru1,11.454785182574772
Lu2 Al1 Co3,10.0171133999841
Lu2 Al1 Ni2,9.211054551810388
Lu2 Al1 Os1,11.729400754925672
Lu2 Al1 Ru1,9.821110270899691
Lu2 Al1 Si2,7.440309278139906
Lu2 Al1 Tc1,9.646276518211073
Lu2 Al1 Zn1,8.452643018891767
Lu2 Al3 Fe1,7.4413612050052755
Lu2 Be1 Os1,12.242663649655118
Lu2 Br2 O1,3.805358625227527
Lu2 C1,9.564543896669292
Lu2 C1 Cl2,6.928026586560485
Lu2 Cd1 Ag1,9.94922457114138
Lu2 Cd1 Hg1,11.20399232432848
Lu2 Cd1 In1,9.586682815837491
Lu2 Cd1 Os1,12.898538828831615
Lu2 Cd1 Tc1,10.885380782932945
Lu2 Co1 Cu1,10.686136496938436
Lu2 Co1 Ge6,8.270432852157827
Lu2 Co1 Ir1,13.580526722555986
Lu2 Co1 Os1,13.83662193870099
Lu2 Co1 Rh1,11.684323977458847
Lu2 Co1 Ru1,11.737453310009997
Lu2 Cr2 C3,9.07768292073322
Lu2 Cu1 As3,0.2149652516763624
Lu2 Cu1 Au1,12.357642943624786
Lu2 Cu1 Ir1,13.177018364521324
Lu2 Cu1 Os1,13.25038136431887
Lu2 Cu1 Pd1,10.924528278599164
Lu2 Cu1 Pt1,12.848345726852331
Lu2 Cu1 Rh1,11.113807818650209
Lu2 Cu1 Ru1,11.414127988295846
Lu2 Cu1 Sb3,0.3063059790481573
Lu2 Cu1 Tc1,11.38117498956778
Lu2 Fe2 Si2 C1,8.519183880136872
Lu2 Ga1 Ag1,9.855126497159118
Lu2 Ga1 Cu1,9.753085334389292
Lu2 Ga1 Ni2,10.124519593738514
Lu2 Ga1 Os1,12.791490965139175
Lu2 Ga1 Ru1,10.86142401842515
Lu2 Ga1 Tc1,10.69227844695251
Lu2 Ga2 O5,9.288106294199242
Lu2 Ga3 Cu1,9.078676980948604
Lu2 Ga3 Ni1,9.364389180842837
Lu2 Ge3,8.437603839334313
Lu2 Hg1 Au1,13.4013145825017
Lu2 I2 O1,3.843392903901858
Lu2 In1,9.662458456977776
Lu2 In1 Ag1,9.840462294284992
Lu2 In1 Hg1,11.065343990648294
Lu2 In1 Ni2,9.919896502987552
Lu2 Ir1 Pd1,13.75714621235794
Lu2 Ir1 Rh1,14.070932283489569
Lu2 Ir1 Ru1,14.314788763160715
Lu2 Mg1 Al1,7.112560326836394
Lu2 Mg1 Cd1,8.007122978487889
Lu2 Mg1 Hg1,9.616513582845112
Lu2 Mg1 In1,8.080706735851782
Lu2 Mg1 Os1,11.244286693680008
Lu2 Mg1 Ru1,9.369259735447688
Lu2 Mg1 Tc1,9.153812258185177
Lu2 Mo2 C3,9.64535485821585
Lu2 Ni1 Ge4,8.803996881056815
Lu2 Ni1 Ge6,8.318630622265617
Lu2 Ni1 Ir1,13.568520838761431
Lu2 Ni1 Os1,13.56798741772883
Lu2 Ni1 Ru1,11.638270549302067
Lu2 Ni1 Sn6,8.66524022835582
Lu2 O3,10.39274496941692
Lu2 Os1 Pd1,13.966214274082432
Lu2 Pd1 Au1,12.8831324048849
Lu2 Pd1 Pt1,13.406828972155882
Lu2 Pd1 Rh1,11.810047521549803
Lu2 Pd1 Ru1,11.995836846660632
Lu2 Ru1 Au1,13.376108581125468
Lu2 Ru1 Pt1,13.932167306225065
Lu2 Ru1 Rh1,12.348892428536193
Lu2 S1 O2,8.919845335969466
Lu2 Se1 O2,9.354651497508865
Lu2 Si3 Pd1,8.057750968543983
Lu2 Ta2 O5,11.199077440243924
Lu2 Tc1 Ag1,11.247891359107737
Lu2 Tc1 Au1,13.217720982852317
Lu2 Tc1 Pd1,11.856743780879093
Lu2 Te3,0.3773449726920466
Lu2 Tl1 Ag1,11.262385236539256
Lu2 Tl1 Cd1,10.884468395827392
Lu2 Tl1 Hg1,12.4040445646098
Lu2 Tl1 In1,10.754052080538033
Lu2 Tl1 Zn1,10.87416293293836
Lu2 Zn1 Ag1,9.83991691300443
Lu2 Zn1 Au1,11.729361846346944
Lu2 Zn1 Cu1,9.667791625045416
Lu2 Zn1 Ga1,9.448016224033845
Lu2 Zn1 Hg1,11.110770655985425
Lu2 Zn1 In1,9.395817296827872
Lu2 Zn1 Ir1,12.68052341834822
Lu2 Zn1 Os1,12.836541593222403
Lu2 Zn1 Pd1,10.53657162380188
Lu2 Zn1 Pt1,12.323532463880165
Lu2 Zn1 Ru1,10.834767304363002
Lu2 Zn1 Tc1,10.679598659565915
Lu3 Al1,9.041432831301847
Lu3 Al1 C1,8.750496135818159
Lu3 Al1 N1,9.42314583359464
Lu3 Cd1,9.806945037816195
Lu3 Ga1,9.980666418593955
Lu3 Ga1 C1,9.577455736939736
Lu3 Ga5 Co1,9.257220817450474
Lu3 Ga5 Ni1,9.289799707303263
Lu3 Hg1,11.495673267983436
Lu3 In1,9.826762680794156
Lu3 In1 C1,9.858600616495885
Lu3 In1 N1,10.560863451591402
Lu3 Mg1,8.013913637804162
Lu3 Mn2 Ga4,8.80136414687168
Lu3 Mn3 Ga2 Si1,8.821649617352158
Lu3 Pb1 C1,11.265043557446146
Lu3 S4,7.04935758028305
Lu3 Sc1,8.367731415773644
Lu3 Si1,9.614433245908913
Lu3 Sn1,9.989079761172842
Lu3 Sn1 C1,10.114427543708675
Lu3 Tl1,11.099772406776378
Lu3 Tl1 C1,11.23642366470965
Lu6 Fe1 Bi2,10.7127499855815
Lu6 Fe1 Sb2,9.89594993722358
Lu6 Mn1 Bi2,10.476412995331875
Lu6 Mn1 Sb2,9.705816109373032
Lu6 Sb2 Mo1,9.701992865687286
Lu8 Te1,9.71712311042946
Mg1,1.5801956208360088
Mg1 Ag1,5.91548197764998
Mg1 Ag1 As1,5.506458656759926
Mg1 Ag1 Au2,0.9437221265898316
Mg1 Ag1 F3,3.688900357296797
Mg1 Ag1 Pd2,0.6520391302415862
Mg1 Ag1 Sb1,5.950743766822866
Mg1 Ag2,7.225980791704408
Mg1 Ag2 Hg1,0.7016697897486303
Mg1 Ag3,7.770681553166133
Mg1 Ag4,8.252895635358094
Mg1 Ag5,8.596272115706544
Mg1 Al1,1.2802973078784958
Mg1 Al1 Ag2,6.367013416081447
Mg1 Al1 Au2,0.833822038164902
Mg1 Al1 B4,2.9100354640166017
Mg1 Al1 Cu3 Se4,4.782758244815919
Mg1 Al1 F5,2.19626193023541
Mg1 Al1 Ir2,12.671539583348164
Mg1 Al1 Ni2,0.3550628248592264
Mg1 Al1 O3,3.3235815349581737
Mg1 Al1 Pd2,7.197970484502064
Mg1 Al1 Pt2,0.8862191417141237
Mg1 Al1 Rh2,7.496092323273873
Mg1 Al2,1.6595474173613165
Mg1 Al2 C2,2.92943775137171
Mg1 Al2 Cu1,3.553152022744772
Mg1 Al2 Ge2,3.698176880876084
Mg1 Al2 O4,3.1289503112606707
Mg1 Al2 S4,2.2135155561972018
Mg1 Al2 Sb2,4.107963743689809
Mg1 Al2 Se4,3.579237882520728
Mg1 Al2 Si2,2.314534274494037
Mg1 Al2 Sn2,4.195361025871625
Mg1 Al3,2.4258624286411705
Mg1 As1,3.7596439345854646
Mg1 As1 Pd2,0.6120993902657108
Mg1 As1 Pt5,15.636767377326157
Mg1 Au1,10.175760941309065
Mg1 Au1 O2,8.383303437102434
Mg1 Au2,12.673921310638129
Mg1 Au3,14.272435118391956
Mg1 Au5,15.480054215262042
Mg1 B1 O3,3.647354163171599
Mg1 B2,2.637300884258781
Mg1 B2 N6,2.537442928222524
Mg1 B3,1.7479949359104567
Mg1 Be1 B1,2.0487156942341187
Mg1 Be1 O3,3.175034331029491
Mg1 Be1 Pt2,0.8901813610752701
Mg1 Be2 As2,3.955155825956148
Mg1 Be2 B1,2.17358883200249
Mg1 Be2 N2,3.025453277782806
Mg1 Be2 Os1,0.5892116781556286
Mg1 Be2 P2,2.415443308092115
Mg1 Be2 Pt1,0.5014800363964436
Mg1 Be3,1.815387393303904
Mg1 Be4 Cu1,3.374923896563119
Mg1 Bi1,6.767447242900896
Mg1 Bi1 F6,4.398131107045447
Mg1 Bi1 O3,7.662396584623495
Mg1 Bi1 Pd2,0.7738179251731736
Mg1 Bi1 Rh2,0.796116928373562
Mg1 Bi2,8.205855847321612
Mg1 Bi3,9.108570699957925
Mg1 Bi5,9.459781728733772
Mg1 Br1 Cl1 O6,2.694737088106011
Mg1 Br2,3.329358988691528
Mg1 Br2 N6,3.4226619077620337
Mg1 Br2 O2,2.7516435669978345
Mg1 Br2 O4,3.565959186983597
Mg1 Br2 O6,2.982939086128932
Mg1 Br6,0.1704266146167643
Mg1 C1,2.73541921714692
Mg1 C1 N2,2.385824735825236
Mg1 C2,2.0618230241891524
Mg1 C2 S2 O2 F2,1.6633460548790728
Mg1 Cd1,3.091889430677167
Mg1 Cd1 Ag2,7.670947264724969
Mg1 Cd1 Au2,11.640764129417928
Mg1 Cd1 Hg2,0.6593214361824085
Mg1 Cd1 Pd2,0.6368395961809087
Mg1 Cd1 Pt2,0.9788939546464096
Mg1 Cd1 Rh2,0.64357230469422
Mg1 Cd1 S2,4.271199237494555
Mg1 Cd1 Te1,5.1605074370661885
Mg1 Cd1 Te2,4.584835863735807
Mg1 Cd2,4.192111607027285
Mg1 Cd3,6.693016476819881
Mg1 Cd5,7.146544237789538
Mg1 Cl1 O1,2.5601403986544984
Mg1 Cl2,1.1174808886268646
Mg1 Cl2 O6,1.252009421642182
Mg1 Cl6,0.1032210236797852
Mg1 Co1 Cu3 Se4,5.202241020007907
Mg1 Co1 F6,3.0831962090239093
Mg1 Co1 Ge1,5.522303735945734
Mg1 Co1 O3,4.310899696811377
Mg1 Co2 Ge1,0.4973337652237128
Mg1 Co2 N2,4.674056093286343
Mg1 Co2 Si1,0.3979022735422328
Mg1 Co2 Sn1,0.5563921040412932
Mg1 Co3,6.755971218215002
Mg1 Co3 C1,6.563379205695094
Mg1 Cr1,3.3830040520309703
Mg1 Cr1 Cu3 Se4,5.031752240665321
Mg1 Cr1 F6,2.967903085140488
Mg1 Cr1 Pt2,0.9722200297465208
Mg1 Cr2 N2,3.465693416307987
Mg1 Cu1,4.66566663684631
Mg1 Cu1 As1,5.355636399919055
Mg1 Cu1 Au2,0.8983651026664475
Mg1 Cu1 Bi1,7.40800070028541
Mg1 Cu1 Ge1,5.195597114404961
Mg1 Cu1 N1,4.030358521479214
Mg1 Cu1 O2,5.03879471707622
Mg1 Cu1 O3,4.342774019810358
Mg1 Cu1 Pb1,7.471288906322647
Mg1 Cu1 Pd2,0.5964289618201548
Mg1 Cu1 Pt2,1.7303506394439192
Mg1 Cu1 Sb1,5.728514683772858
Mg1 Cu1 Sn1,5.233166657854491
Mg1 Cu2,5.816113247109954
Mg1 Cu2 O3,4.808820628052112
Mg1 Cu2 Pt1,0.7491163908648225
Mg1 Cu3,6.706989621642641
Mg1 Cu3 N3,6.020853225576514
Mg1 Cu3 Ni1 Se4,5.213593212939788
Mg1 Cu4 Sn1,7.489457123293569
Mg1 Cu5,7.413634105100247
Mg1 F2,1.8675325542799164
Mg1 F3,3.468952617991746
Mg1 Fe1 F6,2.984810566291816
Mg1 Fe1 O3,3.984440686235031
Mg1 Fe1 Pt2,0.9588306907995254
Mg1 Fe1 Rh2,8.3171027844551
Mg1 Fe2 N2,4.390617874405909
Mg1 Fe2 O3,4.951436258042606
Mg1 Fe3 O4,5.223205727986532
Mg1 Ga1,2.46879014497198
Mg1 Ga1 Ag2,7.248489807330919
Mg1 Ga1 Au1,8.725821403105916
Mg1 Ga1 Au2,0.8766880830795631
Mg1 Ga1 Co2,0.4761407993089224
Mg1 Ga1 Cu2,0.4912219793708021
Mg1 Ga1 Cu3 Se4,5.036013447500952
Mg1 Ga1 Ir2,13.69668517430213
Mg1 Ga1 Ni2,6.797844558244274
Mg1 Ga1 Pd2,8.28390374054821
Mg1 Ga1 Pt2,0.954110444152198
Mg1 Ga1 Rh2,8.651505634434686
Mg1 Ga2,3.511477060746653
Mg1 Ga3,4.883842694309025
Mg1 Ga5,5.359391953899504
Mg1 Ge1,4.116632083531321
Mg1 Ge1 As2,3.9966511699982687
Mg1 Ge1 Ir2,13.735747444338008
Mg1 Ge1 O3,4.682288444475782
Mg1 Ge1 P2,2.926203255898226
Mg1 Ge1 Pd2,0.5982356164901153
Mg1 Ge1 Rh2,8.749935789045917
Mg1 Ge1 Ru2,0.5903610054200824
Mg1 Ge2,4.589141773526214
Mg1 Ge2 N2,4.622039788049674
Mg1 Ge3,4.99728585899461
Mg1 Ge5,5.41978724770195
Mg1 H1,1.653331181295711
Mg1 H2,1.423870415501333
Mg1 H2 O2,2.115296780646379
Mg1 H3,1.742609729080745
Mg1 H4 Cl2 O2,1.7849262539437774
Mg1 H6 Br2,2.277566421419303
Mg1 H6 Cl2,0.6500134028504779
Mg1 Hg1,8.713425817011279
Mg1 Hg1 O3,7.223299178475568