Composition,Density
Tm2 Tl1 Ag1,10.830510772191875
Tm2 Tl1 Cd1,10.49585955214866
Tm2 Tl1 Hg1,11.97890784583242
Tm2 Tl1 Zn1,10.439794678300418
Tm2 Zn1 Ag1,9.364122857324077
Tm2 Zn1 Au1,11.23248049380946
Tm2 Zn1 Cu1,9.280886534643567
Tm2 Zn1 Ga1,8.98026340779626
Tm2 Zn1 Hg1,10.653143536567972
Tm2 Zn1 In1,9.00641523701346
Tm2 Zn1 Ir1,12.173761073587908
Tm2 Zn1 Os1,12.277851465653812
Tm2 Zn1 Pd1,10.006515849326153
Tm2 Zn1 Pt1,11.81933305124868
Tm2 Zn1 Rh1,10.266418375821148
Tm2 Zn1 Ru1,10.37570332935446
Tm2 Zn1 Tc1,10.21672634575186
Tm3 Al1,8.576577167445244
Tm3 Al1 C1,6.0822368104542175
Tm3 Al1 N1,8.844354346171395
Tm3 Ga1,9.495549396175472
Tm3 Ga1 C1,6.849329248051409
Tm3 Ga5 Ni1,9.007441107122862
Tm3 Ge1,9.584917287129343
Tm3 Hg1,11.008475495486223
Tm3 In1,9.331648463443088
Tm3 In1 C1,6.301307211785533
Tm3 In1 N1,9.965413645557147
Tm3 In4 Co2,9.36743754990525
Tm3 Lu1,9.3733691797353
Tm3 Mg1,7.7242953477033
Tm3 Mn3 Ga2 Si1,8.435443126909435
Tm3 P1,9.801893866418064
Tm3 Pb1,10.675962596845332
Tm3 Pb1 C1,10.65508075125338
Tm3 Sc1,7.935159143623187
Tm3 Si1,9.353189608057024
Tm3 Sn1,9.514881191282551
Tm3 Sn1 C1,6.280521796464686
Tm3 Tl1,10.577092463759126
Tm3 Tl1 C1,7.091993122080632
Tm3 V1,8.84409904952976
Tm5 Mg1,8.22373544324688
Tm6 Co1 Bi2,10.3059479641509
Tm6 Fe1 Bi2,10.166883314601716
Tm6 Fe1 Sb2,9.370439066515322
V1,6.0743780976875925
V1 Ag3 Hg1 O4,7.260232839310607
V1 Ag3 O4,5.694009575080282
V1 Ag4 O4,6.412175984398501
V1 As1,6.798085595783109
V1 As1 Ru1,7.843577965456112
V1 As2,6.806542435055741
V1 Au1,12.955689123644753
V1 Au1 S2,7.572687925065098
V1 Au2,14.57222450590015
V1 Au3,15.284403594992495
V1 Au4,16.10157918508274
V1 B1,5.631694260998425
V1 B1 C1,5.305887518137813
V1 B1 O4,2.3860136925328965
V1 B2,5.108570690305548
V1 B2 Ru1,7.591180491793314
V1 B2 S4,3.057137597670581
V1 B4 Os1,8.836343844460476
V1 Bi1,10.133660974118778
V1 Bi1 O3,8.361422175665389
V1 Bi1 O4,5.3415826751535525
V1 Bi2,10.708620926506653
V1 Br1 O1,4.026289121319713
V1 Br2,4.065954415128114
V1 Br2 O1,3.889864694090656
V1 Br3,3.3521697686378094
V1 C1,5.752729771358847
V1 C1 N2,4.091241263623766
V1 C3,4.663641959364583
V1 Cd1 Cu3 Se4,5.493635861296899
V1 Cd1 O3,6.197507247700209
V1 Cl2,2.8731129866678584
V1 Cl2 O1,2.689656585402629
V1 Cl3,2.4816248071365563
V1 Co1,7.516367747422577
V1 Co1 N2,6.849031615315307
V1 Co1 Ni1 Pd1,9.03222450425584
V1 Co1 O3,4.868720275483928
V1 Co1 Sb1,7.775566358159195
V1 Co1 Sn1,7.251271317014256
V1 Co1 Te1,7.819808764414102
V1 Co2 Ge1,8.331148436724714
V1 Co2 Se4,6.675855460766227
V1 Co2 Si1,7.224816669157071
V1 Co2 Sn1,8.760355344451352
V1 Co3,8.290084369843408
V1 Co4,8.429408884247453
V1 Cr1,6.919500540989708
V1 Cr1 As2,6.795390751762506
V1 Cr1 B2,5.92694804709105
V1 Cr1 B4,5.25908721384691
V1 Cr1 C2,6.0189161382308605
V1 Cr1 Fe2,7.540173714442047
V1 Cr1 Ge1 C1,6.724680239439706
V1 Cr1 Mo1,8.049292062712777
V1 Cr1 Mo2,0.956230961495047
V1 Cr1 N2,6.103158352933647
V1 Cr1 P2,5.3616964928401325
V1 Cr1 Re2,1.205385862921093
V1 Cr1 Se2,5.984249232759086
V1 Cr1 W2,1.1207622575165097
V1 Cr2 Mo1,0.5260948299645901
V1 Cr2 Re1,0.5698108325996025
V1 Cr2 S4,4.105472347198461
V1 Cr2 Si6,4.8855168957891735
V1 Cr2 Te4,6.41648553962947
V1 Cr2 W1,0.6844339342060657
V1 Cr3,7.195388401069678
V1 Cr3 As4,6.725232042317877
V1 Cu1 N2,4.843264179629937
V1 Cu1 O2,5.211602179724571
V1 Cu1 O3,3.3708740038573914
V1 Cu1 Rh2,9.92887688179836
V1 Cu3 Hg1 Se4,5.995924192976784
V1 Cu3 O4,5.327137674437762
V1 Cu3 Pb1 Se4,5.759514299741586
V1 Cu3 S4,3.88140759033464
V1 Cu3 Se2 S2,4.601246404340043
V1 Cu3 Se4,5.130520106979627
V1 Cu3 Te2 Se2,5.668925269912123
V1 Cu3 Te3 Se1,5.865788059208853
V1 Cu3 Te4,6.029626921710664
V1 F2,3.7077847145255394
V1 F3,3.2334633014032264
V1 F4,2.961631197078204
V1 Fe1,7.331959510292122
V1 Fe1 As1,7.730056178762324
V1 Fe1 As2,7.339262574470758
V1 Fe1 Co1 As1,8.288132325928233
V1 Fe1 Co1 Ge1,8.292997638074112
V1 Fe1 Co1 Sb1,8.82121173181323
V1 Fe1 Co1 Si1,7.132296934212773
V1 Fe1 Cu2 O4,5.319297943709191
V1 Fe1 N2,6.471618980466511
V1 Fe1 Ru2,9.43695113629398
V1 Fe1 Sb1,6.7666573976884905
V1 Fe1 Se1,7.123873725389092
V1 Fe1 Te1,7.844460365725257
V1 Fe2 S4,4.922054403236986
V1 Fe2 Se4,1.339554453446133
V1 Fe2 Si1,7.112631390743094
V1 Fe2 Sn1,8.806481150049903
V1 Fe3,7.683794865977745
V1 Fe3 Si4,5.907107485677301
V1 Fe4,7.78233117376199
V1 Ga1,6.892405334732054
V1 Ga1 Co2,8.311592221775063
V1 Ga1 Fe1 Co1,8.277895572126218
V1 Ga1 Fe2,8.260081173969906
V1 Ga1 Ni1,6.467600352880113
V1 Ga1 Ni2,8.117878868017439
V1 Ga1 Ni6,8.70587912022163
V1 Ga1 Os2,1.1152651669349314
V1 Ga1 Pt1,10.260869680393236
V1 Ga1 Ru2,9.793417879796804
V1 Ga1 Tc2,9.299074740602874
V1 Ga2 Fe1 Co4,8.444547965202384
V1 Ge1 Pt1,10.32858097323463
V1 Ge1 Rh1,7.678963529281032
V1 Ge1 Ru2,9.73706269825966
V1 Ge2,7.316373404167832
V1 Ge3,6.737782422538227
V1 H1,5.393343919991297
V1 H2,4.697635520449194
V1 Hg1 O3,8.618806919094467
V1 Hg3,12.877447225632352
V1 I1,4.610902781981324
V1 I2,4.836882798052367
V1 I3,3.956815624286532
V1 In1 Pt1,10.04210440527784
V1 In1 Ru2,0.4811595860310741
V1 In3,7.5050512492471135
V1 In3 S4,4.172035136581711
V1 In3 Se4,5.117376201261506
V1 Ir1,14.466041977585895
V1 Ir1 O3,7.981411816898523
V1 Ir3,18.41433770791228
V1 Mo1,8.0551460741648
V1 Mo1 As2,7.717775879929066
V1 Mo1 O5,3.521983696557019
V1 Mo1 W2,0.8311044822805373
V1 Mo2 S4,5.417967945934413
V1 N1,4.931553984051704
V1 N2 Cl6,2.1100484680260645
V1 N2 F6,2.507517269013312
V1 Ni1,7.597136040713457
V1 Ni1 N2,6.569881318279349
V1 Ni1 Sb1,7.453169028261818
V1 Ni2,8.166036424029102
V1 Ni2 Sn1,8.677283582015702
V1 Ni3,8.331487511497707
V1 O1,5.163733621982276
V1 O1 F1,3.856107875833952
V1 O1 F2,3.2819066395837884
V1 O2,2.563009623267051
V1 O2 F1,2.480383022516491
V1 O3,3.4120993824669177
V1 Os1,14.221498890387643
V1 Os1 Cl1,9.18077053567051
V1 Os1 O3,8.01920057245928
V1 P1,4.849041530675833
V1 P2,4.5571322440882245
V1 Pb1 O3,8.35869929314855
V1 Pd2,10.036633909195071
V1 Pd3,10.3096025757866
V1 Pd4,10.550245519433933
V1 Pt1,14.037852660273506
V1 Pt1 O3,8.804705797753165
V1 Pt2,16.537934212389263
V1 Pt3,17.47473626127471
V1 Pt8,19.324671798604008
V1 Re1,13.834591055750868
V1 Re1 Mo1,12.41983616283511
V1 Re1 Mo2,0.949225457776384
V1 Re1 W2,1.2344578876394618
V1 Re2 Mo1,0.7332901484702075
V1 Re2 Si1,1.1038013481926598
V1 Re2 W1,1.3476080851374574
V1 Rh1,9.269430676489886
V1 Rh1 O4,5.696323528076896
V1 Rh3,10.74056923452246
V1 Ru1,9.21288886283982
V1 Ru3,10.562972990053895
V1 Ru3 C1,9.476167370549405
V1 Ru4,10.693059186104696
V1 S1,4.428525270515567
V1 S2,0.6741771457119657
V1 Sb1,6.911122143682212
V1 Sb1 O4,0.048758576738792
V1 Sb1 Rh1,8.129796724617197
V1 Sb1 Ru1,8.23361857004672
V1 Sb2,7.992845533792407
V1 Se1,4.984251147331247
V1 Se2,5.08600147515682
V1 Si1 Ge1,6.083438567762505
V1 Si1 Os2,14.249899703178128
V1 Si1 Pt1,9.224063359276554
V1 Si1 Rh1,6.45165293593962
V1 Si1 Ru2,8.864955407904581
V1 Si1 Tc2,8.485054381177457
V1 Si2,4.640041982589596
V1 Sn1 Pd1,7.854548231776744
V1 Sn1 Pt1,10.286313954064376
V1 Sn1 Rh1,8.114247220126344
V1 Sn1 Rh2,9.874169071033334
V1 Sn1 Ru2,0.5503761847608724
V1 Sn3,7.473858933412427
V1 Tc1,8.926404522114195
V1 Tc2 Ge1,9.467982552863496
V1 Tc2 Mo1,0.8382943129652742
V1 Tc2 W1,0.9479178878908124
V1 Te1,6.681206277916178
V1 Te1 O3,6.203804357410974
V1 Te1 Ru1,8.276440114739463
V1 Te2,6.31608048509934
V1 W1,13.073760446546537
V1 W1 C2,10.92554584447872
V1 W2 C3,12.4900124100446
V1 W3,16.128243947983474
V1 Zn1 Co2,0.6926714892977127
V1 Zn1 Cu3 Se4,5.538384245587682
V1 Zn1 F6,3.4391532219481995
V1 Zn1 Fe2,0.6075586938405791
V1 Zn1 O3,5.05143604595241
V1 Zn1 Rh2,9.62199275937567
V1 Zn1 Ru2,9.682978070627335
V1 Zn3,7.294935890206952
V2 As1 C1,6.552641495935085
V2 C1,5.427305449644111
V2 C1 N1,5.949045922665799
V2 Cd1 O6,3.967290152182634
V2 Co1 O6,2.3584026960373974
V2 Co1 S4,4.810178906133225
V2 Co1 Se4,6.643341464325933
V2 Cr1 Fe1,7.3484345413528995
V2 Cr1 Mo1,0.6233956594638395
V2 Cr1 Os1,10.874371310076796
V2 Cr1 Re1,10.618552804174003
V2 Cr1 Ru1,8.137760298066473
V2 Cr1 S4,4.340097815339531
V2 Cr1 Se4,6.122050279610108
V2 Cr1 Tc1,7.9547447260842175
V2 Cr1 Te4,6.394114750112505
V2 Cr1 W1,0.7193116517266313
V2 Cr2 Fe1,7.1015492015028014
V2 Cu1 Br1,7.140591307147658
V2 Cu1 O6,4.061627178249269
V2 Fe1 Ge1,7.57956372655151
V2 Fe1 Mo1,0.6351891954291184
V2 Fe1 Os1,0.945537919032533
V2 Fe1 Re1,0.7738959417672607
V2 Fe1 S4,4.646491587081812
V2 Fe1 Se4,6.178052012715455
V2 Fe1 Si1,6.40181089068241
V2 Fe1 Sn1,7.651054551316204
V2 Fe1 Tc1,0.5680109581830659
V2 Fe1 Te4,6.915054523570391
V2 Ga1 C1,6.337389718261635
V2 Ga1 Fe1,7.179655262517211
V2 Ge1 C1,6.470529510987595
V2 H1,5.912611102137318
V2 H2 O5,3.3580347700778823
V2 In1 C1,7.043103820824912
V2 Mo1 Ir1,1.015845451213813
V2 Mo1 Os1,11.420396611244255
V2 Mo1 Rh1,0.9225531922819896
V2 Mo1 Ru1,8.839171567483167
V2 Mo1 S4,4.857289368628735
V2 Mo1 W1,10.85055035816374
V2 N1,6.096388132054636
V2 N1 O1,5.207058500287962
V2 N3,5.5530355611111215
V2 Ni1 N2,6.514293786818032
V2 Ni1 P1,6.633845960913777
V2 Ni1 S4,4.638953567167077
V2 Ni1 Sb1,7.933683125898358
V2 Ni1 Sb2,7.660087197030158
V2 Ni1 Se4,5.995732954623967
V2 O1 F5,3.267461671175408
V2 O3 F1,4.248046561739236
V2 O3 F3,3.2635468748126217
V2 O5,2.4218621207980235
V2 Os1 Ru1,11.87153197012744
V2 Os1 W1,1.1191856919493552
V2 P1 C1,5.394856713992068
V2 Re1 Mo1,11.164361791920616
V2 Re1 Os1,14.263208501520612
V2 Re1 Rh1,0.9975686253043458
V2 Re1 Ru1,11.659543301906435
V2 Re1 Tc1,11.479256135407589
V2 Re1 W1,13.64319368571302
V2 Ru1 W1,0.9154381090086334
V2 S1 N2,4.720002998082118
V2 Tc1 Mo1,0.7696753199429138
V2 Tc1 Os1,11.720460517301332
V2 Tc1 Ru1,9.08884507281926
V2 Tc1 W1,0.93629416683113
V2 Zn1 N2,4.745894425558312
V2 Zn1 O6,4.0277330011750365
V3 Ag1,7.305979860157588
V3 As1,7.1211430034229615
V3 Au1,9.956123558543869
V3 Au1 N1,5.201075705734645
V3 B4,5.426880994553178
V3 Bi1,9.460819185223912
V3 Br1,6.7364911897451805
V3 Cd1,7.089382570787456
V3 Co1,6.985026990677996
V3 Cr1,6.599355541507171
V3 Cr3 Si2,6.213883440532019
V3 Cu1,6.803233017094931
V3 F1,4.134141944001067
V3 Fe1,6.896938402309712
V3 Ga1,6.649320580371982
V3 Ge1,6.9163131280226695
V3 Ir1,10.446570811815182
V3 Mo1,7.3713350479092705
V3 Ni1,6.8987549160690005
V3 O4 F2,3.894184634367968
V3 O5 F1,3.9548741204871263
V3 Os1,10.542920871722998
V3 Pb1,9.409152460996776
V3 Pd1,7.705176466473647
V3 Pt1,10.244138666215353
V3 Re1,10.27218635152884
V3 Re1 B4,8.4625905448812
V3 Rh1,7.762255950174997
V3 Rh5,10.046642689751456
V3 Ru1,7.857833738329233
V3 S4,4.2618375423351775
V3 Sb1,7.587411530928405
V3 Se4,6.149351375277473
V3 Si1,5.038766698883092
V3 Si2 Mo3,7.415491581318798
V3 Sn1,7.20572003374451
V3 Te4,6.501456292088855
V4 C3,5.726917903390932
V4 H1 C3,5.689353834823237
V4 Ir1,9.572738095440318
V4 N3,5.98672842502658
V4 Ni1 Sb4,7.264383985553418
V4 Os1,9.575172701187252
V4 Ru1,7.468669153105346
V4 Zn5,6.973256469155729
V5 S4,4.983939356575287
V5 Sb4,7.3101039259504335
V5 Se4,6.545170775893896
V5 Te4,6.797744038882044
V6 Co1 Ir1,8.788867279943513
V6 Co1 Ni1,6.985409158564066
V6 Co1 Rh1,7.371339622201335
V6 Fe1 Ni1,6.865814535233024
V6 Ga1 Ge1,6.8205200061722095
V6 Ga1 Sb1,7.148721455894655
V6 Ga1 Si1,6.263022625398905
V6 Ga1 Sn1,7.04729379487434
V6 Ge1 Os1,8.672904099897657
V6 Si1 C1,5.997470151940034
V6 Si1 Ge1,6.358929418376749
V6 Si1 Os1,8.112766847121721
V6 Si1 Sn1,6.615267473631851
W1,17.736188308705483
W1 Au3,18.45631323777901
W1 Br1 Cl3 O1,3.8680333537624016
W1 Br4 O1,4.442609153916414
W1 Br6,4.176017946249249
W1 Br6 N2,3.840408946985307
W1 C1,12.454947608219916
W1 C1 O2,5.938939099985118
W1 Cl4 O1,3.5001503781661434
W1 Cl6,2.8790235070981645
W1 F5,5.92860228269362
W1 N1,12.870113236711584
W1 N1 O1,8.399459280097894
W1 N2,4.818044096286074
W1 N2 Cl6,2.5544779630225354
W1 N6,0.0676773054564779
W1 O1 F4,4.529472719372131
W1 O2,7.259777832587352
W1 O2 F1,6.192863042726371
W1 O3,6.421855327862977
W1 S1,11.0565156938623
W1 S2,2.7309312361995106
W1 Se1 S1,4.636441761431047
W1 Se2,3.380545359692427
W2 C1,16.510447514246184
W2 C1 O1,14.092237369541488
W2 C3 O3,6.707828105540172
W2 N1,15.4692444726509
W3 C1,16.577625702894597
W3 N4,13.354556060696163
W3 O1,15.259309735592932
W3 Se2 S4,5.177786093637958
W3 Se4 S2,5.50099693626163
W4 C3 O1,14.543118793121147
Xe1,2.127521091102082
Xe1 F2,3.87091300071649
Y1,4.494516911194183
Y1 Ag1,6.700101543631394
Y1 Ag1 Au2,0.8856062388770705
Y1 Ag1 Ge1,7.071176819130172
Y1 Ag1 Hg2,10.982502044289207
Y1 Ag1 O2,5.56490483134817
Y1 Ag1 O3,4.685614886915885
Y1 Ag1 Pb1,8.864151157501434
Y1 Ag1 Pd2,0.6719542842166693
Y1 Ag1 S2,4.479519026095199
Y1 Ag1 Sb2,7.339483050282896
Y1 Ag1 Se2,5.865910803964757
Y1 Ag1 Sn1,7.216838755479386
Y1 Ag1 Sn2,7.513800228917437
Y1 Ag1 Te2,5.782462522079568
Y1 Ag2,7.706544393067641
Y1 Ag2 Hg1,0.6743281927036138
Y1 Ag2 Pb1,0.6898964643417288
Y1 Ag3,8.124084614906684
Y1 Al1,3.879845028133587
Y1 Al1 Ag2,6.82016349979241
Y1 Al1 Au2,0.7508210995563096
Y1 Al1 Co4,6.840098755674724
Y1 Al1 Cu1,4.371068613508434
Y1 Al1 Cu2,0.4444427611753075
Y1 Al1 Fe1,5.206501672917329
Y1 Al1 Ge1,5.073594944041729
Y1 Al1 N2,4.576361739515994
Y1 Al1 Ni1,5.292877383308735
Y1 Al1 Pd1,6.101195592253532
Y1 Al1 Pd2,0.5722816499800416
Y1 Al1 Si1,4.03791517013876
Y1 Al1 Zn1,4.819850645843678
Y1 Al2,3.879200230807744
Y1 Al2 B1 N4,3.9794976672884266
Y1 Al2 Co1,4.694791723929044
Y1 Al2 Ge2,4.532040711301738
Y1 Al2 Ni1,4.672976220183639
Y1 Al2 Pd5,8.663391001342172
Y1 Al2 Si2,3.267732275694032
Y1 Al3,2.391904116949502
Y1 Al3 Ag1,4.628244711083616
Y1 Al3 Fe2,4.6015072030611615
Y1 As1,5.473713276844123
Y1 As3,5.951931453803149
Y1 Au1,9.771940250091324
Y1 Au1 O2,7.736362767845083
Y1 Au2,12.464912946902226
Y1 Au3,13.797940639914737
Y1 B1 C1,3.260993961768983
Y1 B1 N2,4.692776959910163
Y1 B1 Pd3,8.599435522796034
Y1 B1 Pt3,13.870500028013891
Y1 B1 Rh3,9.061384682049148
Y1 B2,5.045298476129316
Y1 B2 Ir3,13.92705366324768
Y1 B2 Mo1,6.380343029951718
Y1 B2 Pd2 C1,7.205732549599368
Y1 B2 Rh2 C1,7.272414811560448
Y1 B2 Rh3,8.640178846995385
Y1 B2 Ru3,8.584136766077785
Y1 B4 W3,11.884963213571291
Y1 B6,3.699194842606093
Y1 Be1 Cu4,6.815563404667483
Y1 Bi1,7.760534406833078
Y1 Bi1 Au2,1.0147022947667452
Y1 Bi1 O2 F2,7.049761159717614
Y1 Bi1 O3,6.703400806382276
Y1 Bi1 Pd1,8.764686746318953
Y1 Bi1 Pd2,10.062881078745354
Y1 Bi1 Pt1,10.626718517979766
Y1 Bi1 Te3,6.376598920494423
Y1 Bi2 Br1 O4,7.529211582333204
Y1 Bi2 Cl1 O4,7.314987307924014
Y1 Bi2 I1 O4,7.656378784706029
Y1 Bi3,9.69382926996944
Y1 Br1 O1,4.664391442778788
Y1 Br2,4.207695203459933
Y1 Br3,2.948371338829687
Y1 C1,0.3574527692187474
Y1 C1 Br1,4.453038714645779
Y1 C1 Cl1,3.635461491542189
Y1 C1 I1,4.900237993988967
Y1 C2,4.447058270599283
Y1 Cd1,6.302809809078987
Y1 Cd1 Ag2,8.004033092448728
Y1 Cd1 Au1,9.525503625418496
Y1 Cd1 Au2,11.530180241327978
Y1 Cd1 B1,6.102349218129845
Y1 Cd1 Cu2,0.5361080165807873
Y1 Cd1 Cu3 Se4,5.284464033149611
Y1 Cd1 Ga1,5.383966925844339
Y1 Cd1 Hg2,10.577588145907482
Y1 Cd1 Pd2,8.731274125191957
Y1 Cd1 Pt2,12.456811701238312
Y1 Cd1 Rh2,0.7044114282204919
Y1 Cd2,6.972864536510122
Y1 Cd2 Ag1,0.5084552114643599
Y1 Cd3,7.346116653223567
Y1 Cl1,3.566988837993552
Y1 Cl1 O1,3.83273626509135
Y1 Cl1 O2,3.798901253738912
Y1 Cl3,2.2995165865917744
Y1 Co1,5.420377437912928
Y1 Co1 C1,5.761365146906102
Y1 Co1 C2,5.877646777942771
Y1 Co1 F5,3.370828574448846
Y1 Co1 Ge2,6.758639848098238
Y1 Co1 Ni1,7.503663294266952
Y1 Co1 O3,5.993226885848512
Y1 Co1 Si2,5.201238439570075
Y1 Co2,7.581892783634608
Y1 Co2 B2,6.368622794819547
Y1 Co2 B2 C1,6.1503994387722
Y1 Co2 Ge2,7.33231861084687
Y1 Co2 Si2,5.928044803325622
Y1 Co3 B2,7.268030988765285
Y1 Co3 Ni2,7.748710606164828
Y1 Co4 B1,7.363085850239815
Y1 Co4 Ge1,7.800811882708803
Y1 Co4 Si1,7.057945952988243
Y1 Co5,7.647614378048947
Y1 Cr1 F5,3.216787661790653
Y1 Cr1 O3,5.480083491421764
Y1 Cr2 Si2,5.201513780921312
Y1 Cr2 Si2 C1,5.24464819327619
Y1 Cu1,5.830094463983393
Y1 Cu1 As2,6.620741219206291
Y1 Cu1 Au2,0.8589467527133037
Y1 Cu1 F5,3.462936980741809
Y1 Cu1 Ge1,6.213852254896702
Y1 Cu1 O1,4.9316606108473335
Y1 Cu1 O2,4.864000958163748
Y1 Cu1 O3,6.15230194191815
Y1 Cu1 P2,5.245981805490605
Y1 Cu1 Pb1,8.684255397100301
Y1 Cu1 Sb2,7.15362458254207
Y1 Cu1 Se2,5.495823559788307
Y1 Cu1 Si1,5.305149092592598
Y1 Cu1 Si2 Ni1,5.709820052417954
Y1 Cu1 Sn1,6.897992986746148
Y1 Cu1 Te2,5.963717512699817
Y1 Cu2,6.706395024863868
Y1 Cu2 Ge2,7.0398617842361935
Y1 Cu2 S2,5.429089633932744
Y1 Cu2 Se1 O2,3.535662234483713
Y1 Cu2 Si2,5.749098266650695
Y1 Cu3 Hg1 Se4,5.958182988349004
Y1 Cu3 Pb1 Se4,5.376546125741383
Y1 Cu5,7.535186104450629
Y1 Er1,6.64479730421236
Y1 Er1 Ag2,8.149498487766557
Y1 Er1 Al2,5.573526272944701
Y1 Er1 Al4,5.001790732188382
Y1 Er1 Cd2,7.612045764827131
Y1 Er1 Cu2,7.69193341589151
Y1 Er1 Hg2,10.620702552813404
Y1 Er1 In2,7.657011425377346
Y1 Er1 Ir2,13.276501705355216
Y1 Er1 Mg2,4.653162371556952
Y1 Er1 Ni2,7.732602201666055
Y1 Er1 Rh2,9.549835325352376
Y1 Er1 Ru2,9.7676788273364
Y1 Er1 Sn2 Pd4,9.760223968368964
Y1 Er1 Tl2,10.132150466000653
Y1 Er1 Zn2,7.093188424124197
Y1 Er3,7.797797423984713
Y1 Fe1 Co1,7.058719440523124
Y1 Fe1 Cu1,7.006853518894337
Y1 Fe1 F5,3.2492617730186115
Y1 Fe1 Ge2,6.559653007390342
Y1 Fe1 Ni1,7.082600446224156
Y1 Fe1 Ni4,7.570391937984844
Y1 Fe1 O3,5.465937800635578
Y1 Fe2,6.872989897531046
Y1 Fe2 B2,5.967438032154025
Y1 Fe2 Ge2,7.107959844950806
Y1 Fe2 Si2,5.68301635941366
Y1 Fe5,7.107153347769012
Y1 Ga1,5.438626464468515
Y1 Ga1 Ag1,6.82721486823749
Y1 Ga1 Ag2,0.5174061122000428
Y1 Ga1 Au1,9.303698370172327
Y1 Ga1 Au2,11.259679322941018
Y1 Ga1 Cu2,0.5417280772971234
Y1 Ga1 I1,5.048622771821245
Y1 Ga1 Pd2,0.6350420517019703
Y1 Ga1 Pt2,0.9210892828492202
Y1 Ga1 Rh2,8.96083060971618
Y1 Ga2,5.954496935155665
Y1 Ga2 Ni1,6.824061204658247
Y1 Ga2 Pd1,7.407333784563661
Y1 Ga3,6.281729619692389
Y1 Ga3 Cu1,6.674867247018419
Y1 Ga5 Co1,6.720370873341096
Y1 Ge1,5.830799968949737
Y1 Ge1 Au1,9.286324942940476
Y1 Ge1 Pd1,7.40564179962911
Y1 Ge1 Pd2,0.661196013333383
Y1 Ge1 Pt1,9.829085362337713
Y1 Ge2,5.852708121597142
Y1 Ge2 Rh2,8.173952514177252
Y1 Ge2 Ru2,8.010457528611411
Y1 Ge3,6.064273338856981
Y1 H1 O2,4.059870687491691
Y1 H1 Se1,5.558094700145222
Y1 H2,4.2625905371206585
Y1 H3,3.936368304634369
Y1 Hf1 Au2,1.0347122853977797
Y1 Hf1 Mg6,3.6717340330662807
Y1 Hf1 Pd2,0.798830371288454
Y1 Hf1 Rh2,0.8420191526851866
Y1 Hf1 Ru2,0.8765393056039666
Y1 Hf2 Pb1,10.629865667661187
Y1 Hg1,9.243619825613532
Y1 Hg1 B1,8.623284002632541
Y1 Hg1 Pd2,10.566472761457234
Y1 Hg2,11.028844656006116
Y1 Hg2 Au1,0.8871558590211424
Y1 Hg3,11.864098184116653
Y1 Ho1,6.517155379393671
Y1 Ho1 Ag2,8.070316174075217
Y1 Ho1 Al2,5.508624981406816
Y1 Ho1 C4,6.02134178169239
Y1 Ho1 Cd2,7.546985717227982
Y1 Ho1 Co4,9.084006669824277
Y1 Ho1 Cu2,7.660583043711288
Y1 Ho1 Hg2,10.53709693844119
Y1 Ho1 In2,7.609815712783901
Y1 Ho1 Ir2,13.171110444675543
Y1 Ho1 Mg2,4.590522830784624
Y1 Ho1 Rh2,9.648164353090802
Y1 Ho1 Ru2,9.610961699407268
Y1 Ho1 Zn2,6.972851473278787
Y1 Ho3,7.602323875818055
Y1 I1,4.773036068056478
Y1 I1 O1,5.137030264327023
Y1 I3,4.011727989975693
Y1 In1,6.291688648590425
Y1 In1 Ag2,8.045785355041131
Y1 In1 Au1,9.498686683982816
Y1 In1 Au2,11.439462517738349
Y1 In1 Co2,7.50949192006807
Y1 In1 Cu1,6.96132214397777
Y1 In1 Cu2,7.492705919695037
Y1 In1 Cu4,8.00682845035762
Y1 In1 Hg2,0.7719427272180944
Y1 In1 Ni1,7.089476258717664
Y1 In1 Pd1,7.735994406450222
Y1 In1 Pd1 Au1,10.176728600736933
Y1 In1 Pd2,8.770745741400708
Y1 In1 Pt1,9.950164149016665
Y1 In1 Pt2,11.91813180116218
Y1 In1 Rh1,7.839960735386706
Y1 In1 Rh2,9.155973491046584
Y1 In2 Ni1,7.4526202526856515
Y1 In3,7.13547621937221
Y1 In5 Co1,7.931382190061139
Y1 In5 Rh1,7.74300995861917
Y1 Ir1,11.485531008146856
Y1 Ir2,14.35964193164293
Y1 Lu1 Cd2,7.884708843654431
Y1 Lu1 Cu2,8.024215458256995
Y1 Lu1 Hg2,10.925968688868126
Y1 Lu1 In2,7.827260387116559
Y1 Lu1 Ir2,13.69656391536908
Y1 Lu1 Mg2,4.836347095248257
Y1 Lu1 Rh2,9.86571617809051
Y1 Lu1 Ru2,10.069761826928774
Y1 Lu1 Tl2,10.35753167544784
Y1 Lu1 Zn2,7.3615378840720656
Y1 Lu3,8.346759596096112
Y1 Mg1,2.1094530481445
Y1 Mg1 Ag1,5.136683573801991