Composition,Density
Ti4 In2 Co1 Ni1,6.750083534227606
Ti4 O3,5.220906687857216
Ti4 O5,4.885752045477361
Ti4 Pd1,5.883724009287352
Ti4 Ru1,5.948590453657904
Ti4 S3 N2,3.8857682219299208
Ti4 V1,4.9124038662380345
Ti5 Se4,5.571714700678183
Ti5 Te4,6.38580727321029
Ti6 Ge2 B1,5.384935874312966
Ti6 O1,4.681535103975327
Ti6 P2 O1,4.843844769112463
Ti6 Pt1 Au1,8.61807750928742
Ti6 Si2 B1,4.445878801793104
Ti6 Zn2 C1,4.1292824189836
Tl1,10.703955888179133
Tl1 Ag1 Br3,5.795348826320991
Tl1 Ag1 Cl3,5.156241496471542
Tl1 Ag1 F3,7.0618498249731845
Tl1 Ag1 I2,6.5962552932416045
Tl1 Ag1 O2,8.359365001647904
Tl1 Ag1 Pd2,0.8619366884174059
Tl1 Ag1 Te2,7.781764325671806
Tl1 Ag3 Te2,8.714897083825196
Tl1 As1,7.211345388879406
Tl1 As1 F6,4.8746007870250505
Tl1 As1 Pd5,11.28962867545191
Tl1 As1 Pd6,11.567134774437884
Tl1 As1 Pt5,17.29379845055219
Tl1 Au1 O2,10.473355833976052
Tl1 Au3,16.30200918883656
Tl1 B1 Cl2,5.181561923669347
Tl1 B1 O3,9.89435580809286
Tl1 B1 Te2,7.524751010867627
Tl1 Bi1,10.792071493296165
Tl1 Bi1 F4,7.47141568889096
Tl1 Bi1 Pb1 S3,7.208421911000095
Tl1 Bi1 Pb2,0.9226261339436784
Tl1 Bi1 S2,7.125514929719345
Tl1 Bi1 Se2,7.705508341951818
Tl1 Bi1 Te1 Se1,8.127643291706693
Tl1 Bi1 Te2,7.591849870135141
Tl1 Bi2,10.601443696608747
Tl1 Bi3,10.813934436228552
Tl1 Br1,6.055751176866383
Tl1 Br1 O3,5.629236805581325
Tl1 C1,9.45127138066347
Tl1 C1 N1 O1,5.503270116138754
Tl1 Cd1 Cu3 Se4,6.098418687040544
Tl1 Cd1 F3,6.8272745786854045
Tl1 Cd1 Hg2,0.8697940128454761
Tl1 Cd1 In2,0.6828292354115165
Tl1 Cd1 N3,6.6603052181469495
Tl1 Cd1 Pd2,0.8682178899564899
Tl1 Cd1 Rh2,12.411064191471027
Tl1 Cd1 S2,6.749749217843062
Tl1 Cd1 Se2,7.488004121855657
Tl1 Cd1 Te2,7.503414466958819
Tl1 Cd2 Bi1,0.8294472395079255
Tl1 Cl1,5.716620099833653
Tl1 Cl1 O3,5.072115205708987
Tl1 Cl1 O4,4.276229672620257
Tl1 Cl2,0.3947448730169604
Tl1 Cl3,3.9800783972149545
Tl1 Co1 As2,9.007665302930056
Tl1 Co1 Bi1,9.384899423371962
Tl1 Co1 F3,7.177515697688809
Tl1 Co1 Mo2,11.697354606537171
Tl1 Co1 Ni1 S2,6.898240919318472
Tl1 Co1 Ni1 Se2,7.67108407378207
Tl1 Co1 W1,12.598406187714035
Tl1 Co2 S2,7.025989916805084
Tl1 Co2 Se2,7.8388173819244304
Tl1 Cr1 S2,6.347043230960519
Tl1 Cr1 Se2,6.686629055824658
Tl1 Cr1 Te2,7.254864424673243
Tl1 Cu1 Cl3,5.392004965216247
Tl1 Cu1 F3,7.468808205090913
Tl1 Cu1 Ir1,12.862004833994186
Tl1 Cu1 O2,6.202852958944729
Tl1 Cu1 O3,9.244007629094678
Tl1 Cu1 Pd2,0.8800269255944968
Tl1 Cu1 S2,5.99197596928102
Tl1 Cu1 Se2,6.6441837032276245
Tl1 Cu2 S2,6.728616826182275
Tl1 Cu2 Se2,7.532882334233141
Tl1 Cu2 Te2,7.776942919244941
Tl1 Cu3 Pb1 Se4,6.296394033977316
Tl1 Cu4 S3,6.4927419123067285
Tl1 Cu4 Se3,7.622654735371674
Tl1 F1,7.625370988532798
Tl1 Fe1 Cu1 Se2,7.584289180002943
Tl1 Fe1 F3,6.840509941466396
Tl1 Fe1 O2,5.863990415579752
Tl1 Fe1 S2,5.837664363553149
Tl1 Fe1 Se2,6.460626671353584
Tl1 Fe2 S2,6.609978623976873
Tl1 Fe2 Se2,7.461408046575831
Tl1 Ga1 F6,5.264029822291153
Tl1 Ga1 O2,6.862610757522446
Tl1 Ga1 O3,8.955514512450666
Tl1 Ga1 Se2,6.488532044434674
Tl1 Ga1 Te2,6.757657625820658
Tl1 Ge1 Br3,5.000708812528363
Tl1 Ge1 Cl3,4.214938328785889
Tl1 Ge1 F3,5.233987064051521
Tl1 Ge1 O3,9.364324257859888
Tl1 H1,7.920058450309249
Tl1 H1 Pd3,12.289198317277602
Tl1 Hg1,11.244092489730493
Tl1 Hg1 F3,7.775480094031755
Tl1 Hg1 O3,9.722392326750954
Tl1 Hg1 Pb2,0.957134959180736
Tl1 Hg2 Bi1,1.0305801770902123
Tl1 Hg2 Pb1,1.0155130234640726
Tl1 Hg3,11.502197118273612
Tl1 I1,6.05014632996599
Tl1 I1 O3,6.533713544988088
Tl1 In1,9.138608211841577
Tl1 In1 Cl3,4.4484680882083
Tl1 In1 F6,5.159948413812545
Tl1 In1 Hg2,0.8771923341176318
Tl1 In1 O2,9.01831455386902
Tl1 In1 Pb2,0.8365467608655625
Tl1 In1 S2,4.761317284339758
Tl1 In1 Se2,6.651771153359162
Tl1 In1 Te2,6.877458588185832
Tl1 In2 Bi1,0.8898999788919735
Tl1 In2 Ga1 Se4,6.00371741018108
Tl1 In2 Ga1 Te4,6.391298258124612
Tl1 In2 Hg1,0.8203684135488111
Tl1 In2 Pb1,0.8885440064109474
Tl1 In3,7.803687011739559
Tl1 In3 Se4,6.0604619213601305
Tl1 N1,9.894046478787867
Tl1 N1 Cl4,2.189934726893961
Tl1 N1 O2,5.514924185690845
Tl1 N3,5.449010526039005
Tl1 Ni1,11.479373785735628
Tl1 Ni1 F3,7.473718975757131
Tl1 Ni1 O3,8.956568751415498
Tl1 Ni2 S2,7.003885805169166
Tl1 Ni2 Se2,7.816846231881057
Tl1 O1,11.366379184170077
Tl1 P1,6.819963595142556
Tl1 P1 F6,4.424040803720041
Tl1 P1 Pd5,11.169701789859817
Tl1 P1 Pt5,17.323075287950292
Tl1 P3,5.165751351592242
Tl1 Pb1,10.751129096830253
Tl1 Pd1 F3,7.413325359960097
Tl1 Pd1 Pb1,11.893394867413583
Tl1 Pd2 Au1,14.251461761900831
Tl1 Pd3,12.69476199705296
Tl1 Pd5 Se1,11.13972897938768
Tl1 Pt1,13.06264728733433
Tl1 Re1,13.993972411314424
Tl1 Rh3,13.192875644520448
Tl1 S1,7.07592247375663
Tl1 S3,5.479096791112355
Tl1 Sb1,6.913922677693916
Tl1 Sb1 F6,4.990010185812511
Tl1 Sb1 Pb1 S3,5.266698149721828
Tl1 Sb1 S2,5.302166004048092
Tl1 Sb1 Se2,5.71535270267472
Tl1 Sb1 Te2,6.247210495666084
Tl1 Se1,7.714674112607663
Tl1 Si1 O3,9.158742718662724
Tl1 Si1 Pt5,17.17677820803928
Tl1 Sn1,9.047267403417562
Tl1 Sn1 Pb2,1.052960386517831
Tl1 Sn2 F5,5.104969063794756
Tl1 Sn3,8.062797728334013
Tl1 Tc1 Ir2,16.804148425776763
Tl1 Tc1 O3,9.154360351271718
Tl1 W1 O3,10.687336371785316
Tl1 Zn1 Cu3 Se4,6.211155289137246
Tl1 Zn1 F3,7.324387758421884
Tl1 Zn2 Tc1,10.55883765996999
Tl1 Zn3,8.300735178974698
Tl2 Au1,11.96818843635861
Tl2 Bi1 Sb1 Te4,7.244551628229837
Tl2 Bi2 Te3 Se1,7.911713347447146
Tl2 Cd1 Bi1,0.9111208433617032
Tl2 Cd1 Ge1 Te4,6.87323871817192
Tl2 Cd1 Hg1,0.8580829460102267
Tl2 Cd1 In1,0.7901457779772807
Tl2 Cd1 Sn1 Te4,6.956867757347713
Tl2 Cd1 Te4,6.384885326164697
Tl2 Cl3,5.206600753172683
Tl2 Co1 F4,7.327923356814029
Tl2 Co1 S2,5.522077799344338
Tl2 Co1 Se2,6.688431831235143
Tl2 Cr1 F6,6.351311748254036
Tl2 Cu1 F4,7.452326881208904
Tl2 Cu1 O4,9.698355355911808
Tl2 Cu1 Se2,3.773426193748589
Tl2 Cu1 Te2,7.839875640255883
Tl2 Cu2 Sn1 Te4,7.300565590025057
Tl2 F3,7.341336586450478
Tl2 Fe1 S2,5.588722218281918
Tl2 Fe1 Se2,6.463112920459501
Tl2 Fe3 Se4,7.016711149085676
Tl2 Ge1 F6,6.396687824327252
Tl2 Hg1 Au1,0.9992214363718284
Tl2 Hg1 Bi1,1.024835163734308
Tl2 Hg1 Ge1 Te4,7.432760734624094
Tl2 Hg1 Pb1,0.945270639899134
Tl2 Hg1 Sb1,0.9647757323433188
Tl2 Hg1 Se1,0.8091130350823832
Tl2 Hg1 Te1,0.8328634917322896
Tl2 In1 Bi1,0.902874177674162
Tl2 In1 Pb1,0.8065633058515917
Tl2 In1 Sn1,0.8484668619395287
Tl2 Mo1 Cl6,4.676663049507282
Tl2 Ni1 F4,7.565529533697256
Tl2 Ni1 S2,6.261429617415319
Tl2 Ni1 Se2,7.051374252343934
Tl2 Ni3 S2,8.77520530466724
Tl2 O1,9.413254201538034
Tl2 O3,10.417514721687242
Tl2 Pd1,12.240630699071868
Tl2 Pd1 Cl4,4.78329558528814
Tl2 Pd3 S2,8.996886715481896
Tl2 Pd3 Se2,9.505942411190777
Tl2 Pt1,13.087706863329212
Tl2 Pt1 Cl6,5.25092659444254
Tl2 Rh3 S2,9.51662012154321
Tl2 S1,7.607769722849851
Tl2 S1 Cl2,1.600222293349688
Tl2 S1 I2,2.707895671712761
Tl2 Se1 S1,7.4037397119057795
Tl2 Si1 F6,5.634976363465802
Tl2 Si1 Hg1 Se4,6.871395708137712
Tl2 Si1 Ni1,10.14755940792
Tl2 Sn1 Cl6,4.548495975429054
Tl2 Sn1 F6,6.4804735364534585
Tl2 Sn1 Hg1 Se4,7.180729472948215
Tl2 Sn1 Hg1 Te4,7.454647693926387
Tl2 Te1 Cl6,4.456701372686942
Tl2 V1 F6,5.867152906702027
Tl2 W1 Cl6,5.236190463807357
Tl3 Ag1,10.732235298827629
Tl3 As1,9.89695004049939
Tl3 As1 S3,6.378215000481487
Tl3 As1 Se3,6.971301341804368
Tl3 Au1,11.913309947393882
Tl3 B1,9.973397140233056
Tl3 Bi1,10.517436213013116
Tl3 Br1,8.678003560611769
Tl3 Cd1,10.03416818710286
Tl3 Cl1,8.545906739554912
Tl3 Co1,10.27707770162392
Tl3 Cr1,10.400900536758323
Tl3 Cu1,10.70645180370139
Tl3 F1,9.673197720469002
Tl3 Fe1,11.70481560703216
Tl3 Ga1,9.72613259713808
Tl3 Ge1,9.897179427396765
Tl3 H1,9.46226495013234
Tl3 Hg1,11.292154486096468
Tl3 In1,9.907247771117246
Tl3 Ir1,13.95356957639522
Tl3 Os1,14.420421983770142
Tl3 Pb1,10.786523388090163
Tl3 Pt1,13.001627480870471
Tl3 Ru1,12.696128689846836
Tl3 S1,9.420381901798953
Tl3 Sb1,9.806312947169523
Tl3 Sb1 S3,6.508911669834061
Tl3 Si1,9.68420274755568
Tl3 Sn1,9.968579989239768
Tl3 V1,10.817824732727782
Tl3 V1 O4,7.142313104021458
Tl3 V1 S4,5.821252442068851
Tl3 V1 Se2 S2,6.190913753005126
Tl3 V1 Se4,6.559809804492353
Tl3 Zn1,10.019068511037196
Tl4 Bi1,10.79808625645743
Tl4 Br1 Cl3,6.805707416987635
Tl4 Br3 Cl1,6.9891690603371535
Tl4 Sn1,10.130865837045771
Tl6 S1,9.297122853209194
Tm1,9.166199288685815
Tm1 Ag1,9.883422946061035
Tm1 Ag1 Ge1,9.47445230126159
Tm1 Ag1 Pb1,10.910709932356836
Tm1 Ag1 S2,6.52610800064757
Tm1 Ag1 Sn1,9.300783042012617
Tm1 Ag1 Te2,6.959651420851115
Tm1 Ag2,10.103023534894518
Tm1 Ag3,9.829190249039945
Tm1 Al1 Ag2,8.73544496840805
Tm1 Al1 Au2,12.582693229885226
Tm1 Al1 Co4,8.443092303330653
Tm1 Al1 Cu1,7.776460672559204
Tm1 Al1 Cu4,8.184591935024274
Tm1 Al1 Ga1,7.314765950821585
Tm1 Al1 Ge1,7.4213875932098174
Tm1 Al1 Ni1,8.039958997817125
Tm1 Al1 Ni4,8.496718117135343
Tm1 Al1 Si1,6.507801806834336
Tm1 Al1 Zn1,7.233788804182598
Tm1 Al2,6.242120066991949
Tm1 Al2 Ge2,5.891427887793192
Tm1 Al2 Ni1,6.7548523547912405
Tm1 Al3,5.426218916992727
Tm1 As1,8.515822342257065
Tm1 As3,7.802104605357404
Tm1 Au1,13.119849344191037
Tm1 Au2,15.065983438634149
Tm1 Au3,15.914108557893892
Tm1 Au4,16.513730715792732
Tm1 B1 Pd3,10.44268872737274
Tm1 B1 Rh3,11.049130683521716
Tm1 B2,9.109008829281487
Tm1 B2 Ir3,15.7237473954177
Tm1 B2 Rh3,10.471506844005992
Tm1 B2 Ru3,10.379197133208258
Tm1 B6,5.713044948730394
Tm1 Be1 Cu4,8.702128618011095
Tm1 Be1 O3,8.481347431994259
Tm1 Bi1,10.191499064088209
Tm1 Bi1 Pd1,10.771946801672726
Tm1 Bi1 Pd2,11.927674554290274
Tm1 Bi1 Pt1,12.68534785806212
Tm1 Bi1 Rh1,10.518823105204156
Tm1 Bi1 Te3,7.108305291875725
Tm1 Bi2 Br1 O4,8.65940498370539
Tm1 Bi2 Cl1 O4,8.44149754336076
Tm1 Bi2 I1 O4,8.683084204108507
Tm1 Bi3,10.897512237890744
Tm1 Br1,7.319191996126452
Tm1 Br1 O1,6.10942835008538
Tm1 Br3,3.948455443165928
Tm1 C2,8.08153364842853
Tm1 Cd1,9.200750728213755
Tm1 Cd1 Ag2,9.870621938309228
Tm1 Cd1 Au1,11.807573130719058
Tm1 Cd1 Au2,13.44179124731969
Tm1 Cd1 Cu4,9.67553503009086
Tm1 Cd1 Hg2,12.156874812091733
Tm1 Cd1 Ni4,10.07822098457988
Tm1 Cd1 Pd2,10.726090671718936
Tm1 Cd1 Pt2,14.541170711325169
Tm1 Cd1 Rh2,11.23347993495012
Tm1 Cd2,8.069738582222286
Tm1 Cd3,8.931831574578661
Tm1 Cl1 O1,5.16562656790815
Tm1 Cl3,3.959802151608826
Tm1 Co1 C1,9.143111058667005
Tm1 Co1 C2,8.974300329032005
Tm1 Co1 Ge2,8.838855701212921
Tm1 Co1 Si2,7.440913616902836
Tm1 Co2,10.62257551753854
Tm1 Co2 B2 C1,8.432196723540697
Tm1 Co2 Ge2,9.193120009422882
Tm1 Co2 Si2,7.914242701313317
Tm1 Co2 Sn1,10.371790991449624
Tm1 Co3 B2,9.470211590697932
Tm1 Cr1 O3,7.925818869102425
Tm1 Cr2 Si2,7.00215022850576
Tm1 Cu1,9.692169405263742
Tm1 Cu1 As2,8.628966447205341
Tm1 Cu1 Ge1,9.122214866314582
Tm1 Cu1 Pb1,10.8451644138668
Tm1 Cu1 Sb2,8.7269481455825
Tm1 Cu1 Se2,7.143204298217571
Tm1 Cu1 Si1,8.054080070403
Tm1 Cu1 Sn1,9.209981703466507
Tm1 Cu1 Te2,7.2876736349129105
Tm1 Cu2,9.544707769385424
Tm1 Cu2 Ge2,8.546104512710095
Tm1 Cu2 S2,7.1385325660324055
Tm1 Cu2 Si2,7.5724963437776065
Tm1 Cu4 Ag1,9.894115555950194
Tm1 Cu5,9.522537688501002
Tm1 F3,9.005640154699686
Tm1 Fe1 Cu1,10.07040700659334
Tm1 Fe1 Ge2,8.66611342984665
Tm1 Fe2,10.050686868425236
Tm1 Fe2 B2,8.803954457969963
Tm1 Fe2 Ge2,8.916330242188346
Tm1 Fe2 O4,6.471440129694593
Tm1 Fe2 Si2,7.618867537520222
Tm1 Ga1,8.593181615811758
Tm1 Ga1 Ag1,9.218471590951747
Tm1 Ga1 Au1,11.78826090544677
Tm1 Ga1 Cu2,9.43959078398793
Tm1 Ga1 Ni2,9.825041101120512
Tm1 Ga1 Pd2,10.58367656462138
Tm1 Ga1 Rh2,11.195452505887202
Tm1 Ga2,8.608977321090435
Tm1 Ga2 Ni1,8.970673613638578
Tm1 Ga2 Pd1,9.38634377152954
Tm1 Ga3,8.199277552218721
Tm1 Ga5 Co1,7.9383888703946015
Tm1 Ge1,9.138930655871128
Tm1 Ge1 Au1,11.782537035603074
Tm1 Ge1 O3,8.187265194775403
Tm1 Ge1 Pd1,9.904306975476752
Tm1 Ge2,8.386307104707795
Tm1 Ge2 Rh2,9.85351053415623
Tm1 Ge2 Ru2,9.635826499439538
Tm1 Ge3,7.85068188601909
Tm1 H2,8.631173542988828
Tm1 Hf1 Co2,11.60270948599077
Tm1 Hf1 Ir2,16.427613513723077
Tm1 Hf1 Os2,16.758906371047953
Tm1 Hf1 Ru2,12.758656439061038
Tm1 Hg1,12.28996841680802
Tm1 Hg3,13.633193179113531
Tm1 I1 O1,6.911049941389301
Tm1 I2,6.004705926163838
Tm1 I3,3.902038752301893
Tm1 In1,9.133222374113894
Tm1 In1 Ag2,9.790893887283426
Tm1 In1 Au1,11.773895543297522
Tm1 In1 Au2,13.328954043041616
Tm1 In1 Co4,10.016203357376224
Tm1 In1 Cu2,9.569971541934931
Tm1 In1 Cu4,9.599632861371433
Tm1 In1 Ni1,9.575877415856423
Tm1 In1 Ni4,10.043388793535934
Tm1 In1 Pd1,9.999718588679103
Tm1 In1 Pd2,10.759756812246131
Tm1 In1 Pt1,12.340150185635016
Tm1 In1 Pt2,14.58926862623491
Tm1 In1 Rh1,10.18356378289526
Tm1 In1 Rh2,11.27877468058149
Tm1 In2 Sn1,8.575457981180675
Tm1 In3,8.665434339678052
Tm1 In5 Co1,8.529133943409692
Tm1 In5 Rh1,8.613874650293429
Tm1 Ir1,15.498685342120284
Tm1 Ir2,17.15189759127879
Tm1 Lu1 Ag2,10.181620996681533
Tm1 Lu1 Au2,13.701178337138096
Tm1 Lu1 Co2,10.902152498008492
Tm1 Lu1 Cu2,9.93995354661282
Tm1 Lu1 Hg2,12.570778673075356
Tm1 Lu1 In2,9.286371006495004
Tm1 Lu1 Ir2,15.782956160733796
Tm1 Lu1 Mg2,6.210436279906579
Tm1 Lu1 Pd2,11.245732759910872
Tm1 Lu1 Rh2,11.857975836848716
Tm1 Lu1 Ru2,12.116242241676751
Tm1 Lu1 Tl2,11.82891911649975
Tm1 Lu1 Zn2,9.214697592853293
Tm1 Lu3,9.725900757473717
Tm1 Mg1,6.081920142481172
Tm1 Mg1 Ag1,7.20319686816054
Tm1 Mg1 Ag2,8.097226955101302
Tm1 Mg1 Au1,9.612166525838706
Tm1 Mg1 Au2,11.94716412484237
Tm1 Mg1 Cd2,7.527730958724928
Tm1 Mg1 Ga1,6.612612194980234
Tm1 Mg1 Hg2,10.846567584037311
Tm1 Mg1 In1,6.833071722891979
Tm1 Mg1 Pd1,7.805811415292355
Tm1 Mg1 Pd2,8.984077907651809
Tm1 Mg1 Pt2,13.02309871655804
Tm1 Mg1 Rh2,9.561030964640002
Tm1 Mg1 Sn1,6.8774965493557545
Tm1 Mg1 Tl1,8.788517633220742
Tm1 Mg1 Zn2,6.890100166151367
Tm1 Mg2,4.732794370858655
Tm1 Mg2 Sc1,4.3947732745720405
Tm1 Mg3,4.024026698817883
Tm1 Mg5,3.2788037237453107
Tm1 Mn1 Ge1,8.988417299038913
Tm1 Mn1 In1,8.304882675423016
Tm1 Mn1 Rh2,10.639246992571934
Tm1 Mn1 Si2,6.815655931806912
Tm1 Mn2 Ge2,8.513941137640291
Tm1 Mn2 Si2,7.27697351537394
Tm1 N1,10.902962439936948
Tm1 Nb1 Os2,15.272760292200044
Tm1 Nb1 Ru2,11.124629215975434
Tm1 Ni1,9.882065394130745
Tm1 Ni1 As1,9.372493139692011
Tm1 Ni1 Bi1,10.925302282172048
Tm1 Ni1 C2,8.880615456362209
Tm1 Ni1 Ge1,9.466145634786749
Tm1 Ni1 Ge2,8.853483923178004
Tm1 Ni1 Sb1,9.317107225687996
Tm1 Ni2,10.587368248198436
Tm1 Ni2 B2 C1,8.309262229712736
Tm1 Ni2 Ge2,9.004142089185844
Tm1 Ni2 P2,8.399428813581858
Tm1 Ni2 Sn1,10.076434387862024
Tm1 Ni4 Au1,11.968401338430803
Tm1 Ni5,9.623696283234242
Tm1 O2,7.77154264545923
Tm1 O3,6.056440930828505
Tm1 Os3,18.53129716952057
Tm1 P1,7.616496429277321
Tm1 P1 Pt1,11.722077903741509
Tm1 Pb3,11.301905618192668
Tm1 Pd1,10.98683074028717
Tm1 Pd2 Pb1,12.169906572121224
Tm1 Pd3,11.76098665358888
Tm1 Pt1,14.052284153937569
Tm1 Pt2,16.574211541647507
Tm1 Pt3,18.26313771022465
Tm1 Re1 Tc2,13.853749443166294
Tm1 Rh1,11.659312642798566
Tm1 Rh2,11.731383931515628
Tm1 Rh2 Pb1,12.831981687227152
Tm1 Rh3,12.162024458888371
Tm1 Rh3 C1,11.275523144401022
Tm1 Ru3,12.090460426416126
Tm1 Ru3 C1,11.309245210423336
Tm1 S1,8.331173672185798
Tm1 S1 I1,6.145892829798269
Tm1 S2,6.633509799566916
Tm1 Sb1,8.35330652870044
Tm1 Sb1 Pd1,8.798936339709007
Tm1 Sb1 Pd2,10.728634620552064
Tm1 Sb1 Pt1,11.41446053507871
Tm1 Sb1 Rh2,11.36928954440813
Tm1 Sb2,8.120493900543456
Tm1 Sb3,8.25119441017319
Tm1 Sc1 Hg2,10.906378756777425
Tm1 Sc1 O3,6.7863848723812135
Tm1 Sc1 Pd2,9.063052763378495
Tm1 Sc1 Ru2,9.729094115486404
Tm1 Sc1 Zn2,7.000438637724932
Tm1 Se1,8.99126697879171
Tm1 Se1 I1,0.2003721292278271
Tm1 Se2,8.05715702793152
Tm1 Si1,7.890332270118202
Tm1 Si1 Ag1,8.626863853572777
Tm1 Si2,6.72106870580147
Tm1 Si2 Ni1,7.413446240314768
Tm1 Si2 Ni2,7.754047189377698
Tm1 Si2 Os2,12.056740753590944
Tm1 Si2 Pd2,8.54093895419729
Tm1 Si2 Pt2,11.614127672516556
Tm1 Si2 Rh2,8.784402972582035
Tm1 Si2 Ru2,8.588176676644771
Tm1 Si3,6.077749270910994
Tm1 Sn1 Au1,10.778079322255897
Tm1 Sn1 Ge1,8.609635861720909
Tm1 Sn1 Ir1,12.724502845911656
Tm1 Sn1 Pd1,10.163968593149264
Tm1 Sn1 Pd2,10.8248958527586
Tm1 Sn1 Pt1,12.472205564817564
Tm1 Sn1 Pt2,13.700008108125749
Tm1 Sn1 Rh1,10.414140225831575
Tm1 Sn1 Rh2,11.355976532891685
Tm1 Sn1 Ru2,11.48740535447699
Tm1 Sn2,8.71114136763197
Tm1 Sn3,8.111281371180619
Tm1 Ta1 Os2,17.448402224406593
Tm1 Ta1 Ru2,13.304047120328258
Tm1 Ta3,14.71264118165038
Tm1 Tc2 W1,13.527269917705432
Tm1 Te1,8.609294030695718
Tm1 Te2,8.186730980511143
Tm1 Te3,7.141255946210468
Tm1 Ti1 Ge1,7.823329839304914
Tm1 Ti2 Ga4,7.302528846517842
Tm1 Tl1,11.644818718117994
Tm1 Tl1 O2,10.056629795259925
Tm1 Tl1 Rh2,13.03862885439898
Tm1 Tl1 S2,7.027914095247433
Tm1 Tl1 Se2,7.611918785732199
Tm1 Tl1 Te2,7.51663109373184
Tm1 Tl3,12.04902446585911
Tm1 Zn1,8.889371009889864
Tm1 Zn1 Ga1,8.565358159728303
Tm1 Zn1 Pd1,9.773116549951435
Tm1 Zn1 Pd2,10.502311393621198
Tm1 Zn1 Rh2,11.065530662139476
Tm1 Zn1 Sn2,8.491943387053704
Tm1 Zn2,8.454838176072936
Tm1 Zr1,8.184553828931389
Tm1 Zr1 Co2,9.28679015669838
Tm1 Zr1 Os2,14.502727477908431
Tm1 Zr1 Ru2,10.546944361182645
Tm1 Zr1 Sb1,8.510051883760047
Tm1 Zr3,7.406729725665605
Tm2 Ag1 Au1,11.793015268058529
Tm2 Ag1 Hg1,11.16803860125535
Tm2 Ag1 Ir1,12.667313862046898
Tm2 Ag1 Os1,12.789740305272344
Tm2 Ag1 Pt1,12.312726619293215
Tm2 Ag1 Ru1,10.89689035098076
Tm2 Ag1 Sb3,0.4204056449834125
Tm2 Al1 Ni2,8.84052532489585
Tm2 Al1 Os1,11.206759473561805
Tm2 Al1 Ru1,9.379650117044903
Tm2 Al1 Si2,7.058944259483033
Tm2 Al1 Zn1,8.015783020284315
Tm2 Al3 Si2,6.046197374806523
Tm2 Be1 Os1,11.692620354005804
Tm2 Br2 F1,4.360661237774373
Tm2 C1,8.948004233671787
Tm2 C1 N2 O2,7.1962380530221655
Tm2 Cd1 Hg1,10.736191710783626
Tm2 Cd1 In1,9.206213132119595
Tm2 Cd1 Os1,12.384498396931534
Tm2 Co1 Cu1,10.14142899070151
Tm2 Co1 Ge4,8.695306137149341
Tm2 Co1 Ir1,12.99558034146779
Tm2 Co1 Os1,13.08921194980508
Tm2 Co1 Ru1,11.219453533497957
Tm2 Cr2 C3,8.691772636511882
Tm2 Cu1 Au1,11.713703168154089
Tm2 Cu1 Ge6,8.07151697652621
Tm2 Cu1 Ir1,12.576977916307325
Tm2 Cu1 O4,9.071697030591393
Tm2 Cu1 Os1,12.661066868468447
Tm2 Cu1 Pd1,10.337247754817785
Tm2 Cu1 Pt1,12.304674187739032
Tm2 Cu1 Rh1,10.655417744528464
Tm2 Cu1 Ru1,10.876348707416392
Tm2 Cu1 Sb3,0.3308080928303118
Tm2 Cu1 Tc1,10.79957720502253
Tm2 Fe1 Ge4,8.58253277611041
Tm2 Fe1 Si4,7.008268718634207
Tm2 Fe2 Si2 C1,8.221256480286518
Tm2 Ga1 Co2,9.828740428055568
Tm2 Ga1 Cu1,9.368896743681466
Tm2 Ga1 Ni2,9.620247668353942
Tm2 Ga1 Os1,12.225151551373
Tm2 Ga1 Ru1,10.386635385957993
Tm2 Ga3 Cu1,8.732451269064175
Tm2 Ga3 Ni1,8.920985236011234
Tm2 Ge3,8.028363138107299
Tm2 Ge6 Pd1,8.159778649475365
Tm2 Ge6 Pt1,8.871421160631341
Tm2 Hg1 Os1,14.081003474577264
Tm2 I2 F1,4.470111755660099
Tm2 I2 O1,3.764153532828731
Tm2 In1,9.201100315533033
Tm2 In1 Ag1,9.461226931399484
Tm2 In1 Hg1,10.636417251811745
Tm2 In1 Ni2,9.62678925119121
Tm2 In1 Os1,12.21507311358448
Tm2 Ir1 Os1,15.603363325370546
Tm2 Ir1 Pd1,13.189317186080928
Tm2 Ir1 Pt1,15.087261148385656
Tm2 Ir1 Rh1,13.58792604282224
Tm2 Ir1 Ru1,13.687624690827963
Tm2 Mg1,7.232876291724227
Tm2 Mg1 Al1,6.759787084210736
Tm2 Mg1 Cd1,7.639591032147642
Tm2 Mg1 In1,7.7356707548798385
Tm2 Mg1 Ir1,10.684569529900685
Tm2 Mg1 Os1,10.78040915978212
Tm2 Mg1 Ru1,8.925267483495304
Tm2 Mg1 Tc1,8.782571101787164
Tm2 Mg1 Tl1,9.030164895239446
Tm2 Mg2 O5,7.346223062566305
Tm2 Mn1 Os1,12.0588619066963
Tm2 Mo2 C3,9.261531015781973
Tm2 Ni1 Ge6,8.108786666225987
Tm2 Ni1 Ir1,12.953297322187494
Tm2 Ni1 Os1,13.076345218787614
Tm2 Ni1 Pt1,12.720557100283978
Tm2 Ni1 Ru1,10.998167647794332
Tm2 Ni1 Sn6,8.529681644675522
Tm2 Ni2 Pb1,10.810698135119816
Tm2 O3,9.79040709410051
Tm2 Os1 Au1,14.623368705273595
Tm2 Os1 Pd1,13.325228581459308
Tm2 Os1 Rh1,13.660419985050096
Tm2 Os1 Ru1,13.72845906151859
Tm2 Pd1 Au1,12.347834553325326
Tm2 Pd1 Pt1,12.901433873654591
Tm2 Pd1 Rh1,11.29549117698816
Tm2 Pd1 Ru1,11.420546709721144
Tm2 Pd2 O5,9.406865193378737
Tm2 Pt1 Rh1,13.228784884433818
Tm2 Ru1 Au1,12.810616376392703
Tm2 Ru1 Pt1,13.385247795442272
Tm2 Ru1 Rh1,11.74647320512234
Tm2 S1 O2,8.430095389158566
Tm2 Sb1 Te1,8.505958951235757
Tm2 Se1 O2,8.728808541985662
Tm2 Si3 Pt3,10.037106837398388
Tm2 Tc1 Ag1,10.78335959344135
Tm2 Te1 O2,8.985364363456233
Tm2 Te1 S2,6.02708870637711
Tm2 Te3,0.3736028007161054
Tm2 Ti1 Ge2,6.961348460590186