Composition,Density
Tb1 Al1,6.540035944171755
Tb1 Al1 Ag2,8.241515615287689
Tb1 Al1 Co4,8.282570770759882
Tb1 Al1 Cu1,7.1807717540087
Tb1 Al1 Cu2,7.692082331204323
Tb1 Al1 Cu4,7.784968073765889
Tb1 Al1 Ga1,6.816741554374708
Tb1 Al1 Ge1,6.653881771192338
Tb1 Al1 Ni1,7.379576001670194
Tb1 Al1 Ni4,8.242435283714713
Tb1 Al1 Pd1,8.002972267947206
Tb1 Al2,5.755338900088705
Tb1 Al2 Ge2,5.624664267283447
Tb1 Al2 Ni1,6.26476472588442
Tb1 Al2 Si2,4.398385878530324
Tb1 Al3,5.015217342851413
Tb1 Al3 Ag1,5.820268714749841
Tb1 Al3 Cu2,6.052864804635959
Tb1 As1,7.743422295315162
Tb1 As3,7.283593600656771
Tb1 Au1,12.154574866411346
Tb1 Au2,14.202419014480048
Tb1 Au3,15.215017338487655
Tb1 B1 Pd3,10.017996233431402
Tb1 B1 Rh3,10.60726444088818
Tb1 B2,8.110466522060191
Tb1 B2 Ir3,15.33039638828083
Tb1 B2 Rh2 C1,8.813421959634564
Tb1 B2 Rh3,10.07562059151766
Tb1 B2 Ru3,10.029916386695067
Tb1 B6,5.392873956484563
Tb1 Be1 Cu4,8.128497591319627
Tb1 Be1 O3,7.796004750847253
Tb1 Bi1,9.52755673814
Tb1 Bi1 Pd1,10.253108404862523
Tb1 Bi1 Pd2,11.416291057560224
Tb1 Bi1 Pt1,12.092686877099048
Tb1 Bi1 Rh1,11.397424645700228
Tb1 Bi1 Te3,7.002971684245286
Tb1 Bi2 Br1 O4,8.361980309129768
Tb1 Bi2 Cl1 O4,8.09559497399554
Tb1 Bi2 I1 O4,8.372897998543069
Tb1 Bi3,2.4316395647429228
Tb1 Br1,5.76918187791384
Tb1 Br3,3.8216451205552255
Tb1 C1 Br1,5.927111850837567
Tb1 C2,6.823958745319422
Tb1 Cd1,8.428114775707451
Tb1 Cd1 Ag2,9.30981279968471
Tb1 Cd1 Au1,11.118806272633933
Tb1 Cd1 Au2,12.828208863074604
Tb1 Cd1 Hg2,11.811237859227848
Tb1 Cd1 Ni4,9.66005218727688
Tb1 Cd1 Pd1,9.42825282250482
Tb1 Cd1 Pd2,10.18005289322899
Tb1 Cd1 Pt2,13.854823730618923
Tb1 Cd1 Rh2,10.694740213951478
Tb1 Cd2,8.525084441711064
Tb1 Cd3,8.518464937241738
Tb1 Ce1 O4,7.378441714372151
Tb1 Ce3,8.593012476873543
Tb1 Cl1,5.449802189193032
Tb1 Cl1 O2,5.329030203586031
Tb1 Cl2 F1,4.876583908098343
Tb1 Cl3,4.060152305788419
Tb1 Co1 C1,8.307228243080917
Tb1 Co1 C2,8.231613545932763
Tb1 Co1 Ge2,8.379692302251843
Tb1 Co1 Si1,7.698467352882528
Tb1 Co1 Si2,6.956555169369587
Tb1 Co1 Si3,6.405626571005553
Tb1 Co1 Sn2,8.445492117100114
Tb1 Co2,9.910026405785484
Tb1 Co2 B2,8.284529721273003
Tb1 Co2 B2 C1,7.962383436844015
Tb1 Co2 Ge2,8.771249789205445
Tb1 Co2 Ni3,9.21091045553605
Tb1 Co2 Si2,7.478852784289313
Tb1 Co3 B2,9.02670352174582
Tb1 Co5,9.060572374246588
Tb1 Cr2 Si2,6.648851098630113
Tb1 Cr2 Si2 C1,6.64409024064768
Tb1 Cu1,8.756728345466295
Tb1 Cu1 As2,8.134668832392379
Tb1 Cu1 Ge1,8.107913724292684
Tb1 Cu1 Ni4,9.211694305533522
Tb1 Cu1 O3,8.296382371600236
Tb1 Cu1 Pb1,10.381357867637218
Tb1 Cu1 Sb2,8.46204945821602
Tb1 Cu1 Se2,6.728611467079683
Tb1 Cu1 Si1,7.2792107856693455
Tb1 Cu1 Sn1,8.419606081904893
Tb1 Cu1 Te2,6.957545207502117
Tb1 Cu2,8.692105049034074
Tb1 Cu2 Ge2,8.400997855747567
Tb1 Cu2 Ni3,9.17108729775631
Tb1 Cu2 S2,6.739661686668114
Tb1 Cu2 Si2,7.204777276112475
Tb1 Cu4 Ag1,9.466065820096912
Tb1 Cu4 Au1,11.194249907776516
Tb1 Cu4 Pd1,9.787644965079163
Tb1 Cu5,8.842178849797753
Tb1 Dy1 Al4,5.843181296338499
Tb1 Dy1 C4,7.251496392178712
Tb1 Dy1 Hg2,11.495890368885776
Tb1 Dy1 In2,8.494648473690255
Tb1 Dy1 Ir2,14.45235407525789
Tb1 Dy1 Rh2,10.780206865281922
Tb1 Er1 Hg2,11.691108293346876
Tb1 Er1 In2,8.744408035691656
Tb1 Er1 Ir2,14.712594080203807
Tb1 Er1 O3,8.095420538997141
Tb1 Er1 Rh2,10.994966316252858
Tb1 Er1 Te2,8.319610814371142
Tb1 Eu1 Rh2,10.703675647409906
Tb1 Eu3,6.4554877468719685
Tb1 Fe1 As1 O1,7.075630957925009
Tb1 Fe1 C2,8.006370255475712
Tb1 Fe1 Cu1,9.388882963782358
Tb1 Fe1 Ge2,8.161378754686119
Tb1 Fe1 Ni4,8.987832369632859
Tb1 Fe1 Si1,7.506788416474101
Tb1 Fe1 Si2,6.811086202086563
Tb1 Fe2,6.088917022969561
Tb1 Fe2 B2,7.821976856272198
Tb1 Fe2 Ge2,8.257473631090537
Tb1 Fe2 Si2,7.200878382217212
Tb1 Ga1,7.767603775336871
Tb1 Ga1 Ag1,8.636083611729369
Tb1 Ga1 Au1,11.086514044924796
Tb1 Ga1 Au2,12.78488378930797
Tb1 Ga1 Fe1,8.337011113742767
Tb1 Ga1 I1,6.586089417403817
Tb1 Ga1 Ni1,8.790250337730834
Tb1 Ga1 Rh2,10.591275363645872
Tb1 Ga2,7.760867581096126
Tb1 Ga2 Co3,8.852297621515408
Tb1 Ga2 Ni1,8.580043789329185
Tb1 Ga2 Pd1,8.942223088720771
Tb1 Ga3,7.758844240553991
Tb1 Ga3 Ni1,7.993362602412352
Tb1 Ga5 Co1,7.769884083940945
Tb1 Gd1 Al6,4.998564654537728
Tb1 Gd1 Ir2,14.007411028576335
Tb1 Gd1 Rh2,10.528219308172645
Tb1 Ge1,8.283429614153292
Tb1 Ge1 Au1,11.06911814994707
Tb1 Ge1 O3,7.731512778487517
Tb1 Ge1 Pd1,9.328127537140476
Tb1 Ge2,7.545993539490367
Tb1 Ge2 Pd2,9.18691762378609
Tb1 Ge2 Rh2,9.464311928144264
Tb1 Ge2 Ru2,9.295361231142008
Tb1 Ge3,7.456132629549718
Tb1 Ge5,7.139273709603319
Tb1 H1 O2,6.906112845141477
Tb1 H1 Se1,7.818204531000963
Tb1 H2,7.404428540602138
Tb1 H2 Br1,6.165389408855955
Tb1 H3,6.787809346485984
Tb1 Hf1,10.530546484528871
Tb1 Hg1,11.3836802421688
Tb1 Hg2,10.937872214927832
Tb1 Hg3,13.031425990770698
Tb1 Ho1,8.36730133035412
Tb1 Ho1 Al4,5.889625772743874
Tb1 Ho1 Co4,10.37133775676478
Tb1 Ho1 Fe4,9.398151715403024
Tb1 Ho1 Hg2,11.65078799556196
Tb1 Ho1 In2,8.571755535675894
Tb1 Ho1 Ir2,14.57961131466857
Tb1 Ho1 Rh2,10.8964986336013
Tb1 Ho3,8.710680542679734
Tb1 I3,3.984248351635757
Tb1 In1 Ag2,9.359853037686404
Tb1 In1 Au1,11.102069738263111
Tb1 In1 Au2,12.834022985730382
Tb1 In1 Co2,8.939393528197776
Tb1 In1 Cu1,8.758356659954785
Tb1 In1 Cu2,9.05099944425119
Tb1 In1 Cu4,9.257762989711711
Tb1 In1 Ir1,11.854432641053403
Tb1 In1 Ni1,9.006017217696725
Tb1 In1 Pd1,9.459668106630437
Tb1 In1 Pd2,10.15983264886768
Tb1 In1 Pt1,11.704408986108996
Tb1 In1 Pt2,13.181645226638086
Tb1 In1 Pt4,15.584055098121771
Tb1 In1 Rh1,9.607880130425158
Tb1 In1 Rh2,10.713989731071338
Tb1 In2 Ni1,8.799228391408697
Tb1 In3,8.244969265146251
Tb1 In5 Co1,8.005665155620472
Tb1 In5 Rh1,8.409530616111944
Tb1 Ir2,16.460105853027592
Tb1 Lu1,8.902331655036518
Tb1 Lu1 Hg2,12.04626646979188
Tb1 Lu1 In2,8.972322030235187
Tb1 Lu1 Ir2,15.145111830961325
Tb1 Lu1 Rh2,11.362714997878196
Tb1 Mg1,5.549603419345434
Tb1 Mg1 Ag1,6.741850558993948
Tb1 Mg1 Au1,9.078548369709152
Tb1 Mg1 Au2,11.300631194019124
Tb1 Mg1 Cd2,7.165261826460943
Tb1 Mg1 Co4,8.020402628666409
Tb1 Mg1 Ga1,6.096738828695416
Tb1 Mg1 Hg2,10.363463716116147
Tb1 Mg1 In1,6.404005659801561
Tb1 Mg1 Ni1,6.252525858731223
Tb1 Mg1 O3,6.694606786001649
Tb1 Mg1 Pd1,7.303738467469349
Tb1 Mg1 Rh2,9.005215723955507
Tb1 Mg1 Sn1,6.435999899659568
Tb1 Mg1 Tl1,8.223426055620791
Tb1 Mg1 Tl2,9.382038423975912
Tb1 Mg1 Zn2,6.56517355433623
Tb1 Mg2 Cu1,5.331332988064506
Tb1 Mg3,3.815878432647705
Tb1 Mn1 Al1,6.861193027295027
Tb1 Mn1 Fe1,9.30133447708603
Tb1 Mn1 Ga1,7.920458553194074
Tb1 Mn1 Si1,7.240427809601598
Tb1 Mn2,9.345489508240318
Tb1 Mn2 Ge2,8.114565342710113
Tb1 Mn2 Si2,6.848438931998729
Tb1 Mn3,7.654641548032949
Tb1 N1,9.48643454710855
Tb1 Nb1 Ru2,10.6065595889352
Tb1 Nd1,7.4089275189074595
Tb1 Nd1 Co4,9.330871981290242
Tb1 Nd1 Fe4,8.685924559015188
Tb1 Nd1 Ni2 Ge4,8.035099292630232
Tb1 Nd3,7.041305280653871
Tb1 Ni1,8.946066892881255
Tb1 Ni1 As1,8.731761532949063
Tb1 Ni1 B1 C1,8.175987300036482
Tb1 Ni1 Bi1,10.357509857179611
Tb1 Ni1 C2,8.135218195639428
Tb1 Ni1 Ge1,8.71124481001952
Tb1 Ni1 Ge2,8.363559601454863
Tb1 Ni1 O3,8.440024863236033
Tb1 Ni1 Sb1,8.720658048206909
Tb1 Ni1 Sb2,8.543925576696049
Tb1 Ni2,9.965170470659148
Tb1 Ni2 B2 C1,7.858244682564482
Tb1 Ni2 Ge2,8.602990413699567
Tb1 Ni2 P2,7.9396294644589185
Tb1 Ni4 Au1,11.48549836676274
Tb1 Ni5,9.268992296755467
Tb1 O1 F1,5.98777218480512
Tb1 O2,7.740046922234936
Tb1 O3,5.359250219626468
Tb1 Os1 O3,10.59093109716342
Tb1 Os3,17.574300433586483
Tb1 P1,6.816053469135878
Tb1 P1 Pt1,11.013172081044369
Tb1 P2 Pd2,8.603303679725176
Tb1 P2 Ru2,8.86037353436736
Tb1 Pb1 Au1,11.556782807477372
Tb1 Pb3,11.009096972540506
Tb1 Pd1,9.654317343600272
Tb1 Pd2,9.25723016225866
Tb1 Pd2 Pb1,11.627864113980554
Tb1 Pd3,11.198488276948046
Tb1 Pm1 Ir2,13.474439905503244
Tb1 Pm1 Rh2,9.894486007150595
Tb1 Pm3,7.19903460720181
Tb1 Pr1 Fe4,8.549117310054731
Tb1 Pr1 Mn4,8.516300274463877
Tb1 Pr3,6.761749344785639
Tb1 Pt1,13.03083692607814
Tb1 Pt2,15.92900130757279
Tb1 Pt3,17.51901010370921
Tb1 Rh1,10.621016009933673
Tb1 Rh2,11.151809093484646
Tb1 Rh2 Pb1,12.284418565204914
Tb1 Rh3 C1,10.82680998849906
Tb1 Rh5,10.801729319133258
Tb1 Ru3,11.487478733093203
Tb1 S1,7.407766487379315
Tb1 S1 F1,6.997341544509521
Tb1 S1 I1,5.742368849554296
Tb1 S2,6.1784806123685945
Tb1 S3,1.3552029003957229
Tb1 Sb1,7.71322842344794
Tb1 Sb1 Pd1,7.726802666999582
Tb1 Sb1 Pt1,10.824538586050778
Tb1 Sb2,7.762481018139992
Tb1 Sb2 Pd1,8.820381409969425
Tb1 Sb3,1.7977778966478906
Tb1 Sc1,5.919641703147108
Tb1 Sc1 Ge1,6.506744710907193
Tb1 Sc1 Sb1,6.956820806382626
Tb1 Sc1 Si2,5.321495957515963
Tb1 Se1,5.919768948487772
Tb1 Se1 I1,0.1457511954485658
Tb1 Se2,7.516694760731928
Tb1 Se3,1.7179392050307178
Tb1 Si1,7.073897313116735
Tb1 Si1 Ni4,8.53480153891877
Tb1 Si1 O3,7.530094610668917
Tb1 Si1 Rh1,8.773948568955717
Tb1 Si2,6.129058775952403
Tb1 Si2 Ag2,7.633105647049738
Tb1 Si2 Au2,10.771745990411208
Tb1 Si2 Ir1 Rh1,10.174712259135962
Tb1 Si2 Ir2,11.91249149090016
Tb1 Si2 Ni1,6.923113661775792
Tb1 Si2 Ni2,7.334387110827812
Tb1 Si2 Os2,11.67095724212835
Tb1 Si2 Pd2,8.210890761002654
Tb1 Si2 Pt2,11.519515687747589
Tb1 Si2 Rh2,8.414759261646676
Tb1 Si2 Rh3,8.90533792411903
Tb1 Si2 Ru1 Rh1,8.334714129657693
Tb1 Si2 Ru2,8.239158547960267
Tb1 Si3 Ir1,8.358632854157836
Tb1 Si3 Rh1,6.722831112869901
Tb1 Sm1,7.636389886288531
Tb1 Sm1 Hg2,10.978292818577703
Tb1 Sm1 Ir2,13.72737824239432
Tb1 Sm1 Rh2,10.140634347295592
Tb1 Sm3,7.47829538000769
Tb1 Sn1 Au1,10.902318750616551
Tb1 Sn1 Au2,12.63192653747846
Tb1 Sn1 Ge1,8.067593309842035
Tb1 Sn1 Ir1,12.101207008128483
Tb1 Sn1 Pd2,10.279502590555657
Tb1 Sn1 Pt1,11.82886363694572
Tb1 Sn1 Pt2,13.1231554874404
Tb1 Sn1 Rh1,9.809454700779852
Tb1 Sn1 Rh2,10.788155527659312
Tb1 Sn1 Ru2,10.916728278131806
Tb1 Sn2,8.260731508857331
Tb1 Sn3,7.775471969397103
Tb1 Ta1 Ru2,12.74050000183438
Tb1 Ta3,14.29075747446362
Tb1 Te1,7.965151155088602
Tb1 Te1 O3,7.1316928879254124
Tb1 Te2,6.02756668191451
Tb1 Te3,1.819789255970984
Tb1 Ti1 Ge1,7.208535296393639
Tb1 Ti1 Si1,6.276185493882696
Tb1 Ti2 Ga4,7.065874305913493
Tb1 Tl1,10.85437506794227
Tb1 Tl1 Ag2,10.79154116396562
Tb1 Tl1 Pd1,11.402188130751416
Tb1 Tl1 S2,6.614429442670528
Tb1 Tl1 Se2,7.267900572933001
Tb1 Tl1 Te2,7.226611399952816
Tb1 Tl3,11.69727142442175
Tb1 Tm1 Hg2,11.845206189937034
Tb1 Tm1 In2,8.824200768732274
Tb1 Tm1 Ir2,14.846744002806256
Tb1 Tm1 Rh2,11.111338469835552
Tb1 V1 O3,7.544947010877843
Tb1 Y1 Hg2,10.289789191829186
Tb1 Y1 Ir2,12.876432618452242
Tb1 Y1 Ni2,7.46684048850767
Tb1 Y1 Rh2,9.207203963774734
Tb1 Y1 Tl2,9.891733118440628
Tb1 Y3,5.435624400988828
Tb1 Yb1 Hg2,11.691217158008754
Tb1 Yb1 Pd2,10.633938591135612
Tb1 Yb1 Pt2,14.349402309254211
Tb1 Yb1 Rh2,11.445454511467329
Tb1 Yb3,7.587407751210548
Tb1 Zn1,8.08173146183886
Tb1 Zn1 Ag1 As2,7.372893854163883
Tb1 Zn1 Cu1 As2,7.3338027863088175
Tb1 Zn1 Ni1,8.69588405899868
Tb1 Zn1 Pd1,9.143856903388134
Tb1 Zn1 Rh2,10.482722103873035
Tb1 Zn1 Si1,6.9878207539203405
Tb1 Zn1 Sn2,8.097401168038246
Tb1 Zn2,7.875205617196779
Tb1 Zn2 As1 O2,4.135947578191126
Tb1 Zr1,7.642072986707725
Tb1 Zr1 Sb1,8.043920947500292
Tb1 Zr3,7.152869777074272
Tb2 Ag1 Ir1,11.62589258987765
Tb2 Ag1 Pd1,9.457530844360583
Tb2 Ag1 Sb3,0.3234993156058042
Tb2 Al1 Co2,8.243930591328741
Tb2 Al1 Cu1,7.548596584102646
Tb2 Al1 Fe3,8.461101743642743
Tb2 Al1 Ni2,8.061129232290345
Tb2 Al3 Co1,6.70566477920279
Tb2 Al3 Fe1,6.556217501706993
Tb2 Al3 Pt1,8.409477335023984
Tb2 Al3 Si2,5.569919214972929
Tb2 Al4 Ni1 Ge2,6.237268803297155
Tb2 As3 Au1,0.4723097935982378
Tb2 B2 C3,7.468048127967743
Tb2 B4 C1,7.524539967561414
Tb2 Be2 O5,7.76974275594708
Tb2 Bi1 O2,8.894275474233376
Tb2 Br2 O1,3.5865638050648445
Tb2 C1,7.804876767714293
Tb2 C1 Br1,8.040210593435104
Tb2 C1 I1,8.274842346786743
Tb2 Cd1 Ni2,8.983864166606029
Tb2 Ce1,8.226028118305537
Tb2 Cl2 O1,3.0241505854427424
Tb2 Co1 Ge4,8.116776625479776
Tb2 Co1 Ge6,7.709436431962257
Tb2 Co3 Ni1,9.916774712111549
Tb2 Cr1 Ge4,7.567896963342193
Tb2 Cr2 C3,7.969868575806544
Tb2 Cu1 Ag1,8.933630335047829
Tb2 Cu1 Ge4,7.975006277128311
Tb2 Cu1 Ge6,7.651661898672061
Tb2 Cu1 Ir1,11.490697237487751
Tb2 Cu1 Pt1,10.80599487346511
Tb2 Cu1 Sb3,0.170872627057653
Tb2 Fe1 Co3,10.083991625687307
Tb2 Fe1 Si4,6.205366919001539
Tb2 Fe2 Si2 C1,7.583527437918212
Tb2 Ga1 Co2,9.046315254182456
Tb2 Ga1 Ni2,9.066852439511656
Tb2 Ga3 Cu1,8.147627144368757
Tb2 Ga3 Fe1,8.002876772708122
Tb2 Ge3,7.371841912259015
Tb2 Ge3 Ir3,11.199536983828748
Tb2 Ge6 Au1,8.302031336750408
Tb2 Ge6 Pd1,7.782133604116813
Tb2 Ge6 Pt1,8.445621160688486
Tb2 In1,8.33926502450822
Tb2 In1 Ag1,8.687787869996743
Tb2 In1 Hg1,9.83427855080802
Tb2 In1 Ni2,8.91220984904262
Tb2 In3 Cu1,8.323356039673744
Tb2 In3 Sn3,8.222355854340291
Tb2 Ir1 Au1,13.337865648829132
Tb2 Ir1 Pd1,12.1378318831494
Tb2 Ir1 Rh1,12.435903390272196
Tb2 Ir1 Ru1,12.571319328154145
Tb2 Mg1,6.505840488616375
Tb2 Mg3 Ni2,5.573214294514907
Tb2 Mg5 Ag1,4.885877863509598
Tb2 Mn1 Ga6,7.7703390502007315
Tb2 Mn3 Al1,7.637972909463984
Tb2 Mo2 C3,8.59236248160672
Tb2 Ni1 Ge4,8.052249075053627
Tb2 Ni1 Ge6,7.707504968069344
Tb2 Ni1 Ir1,11.758361900236928
Tb2 Ni1 Sb4,8.134616525976968
Tb2 Ni2 Sn1,9.165834138283603
Tb2 O3,7.494560040783008
Tb2 Pd1 Rh1,10.36789207220716
Tb2 Pd1 Ru1,10.459415512604435
Tb2 Pr1,7.565935218143694
Tb2 Pr2 O5,7.417327507971848
Tb2 Re2 Si2 C1,10.371087938047095
Tb2 Ru1 Rh1,10.801563010730412
Tb2 S1 O2,7.501302638156023
Tb2 S2 F1,4.647371747262535
Tb2 Sb1 O2,7.77168144917917
Tb2 Sb3 Pd1,0.3229445596575601
Tb2 Se1 O2,7.850418425992266
Tb2 Si1 Ge1,7.687291095183126
Tb2 Si3,6.097151465520512
Tb2 Si3 Ge1,6.510533443130511
Tb2 Si3 Ir3,11.905136555232891
Tb2 Si3 Pt3,10.139896996398011
Tb2 Te1 O2,8.062274777061118
Tb2 Te1 S2,5.464059954117586
Tb2 Te3,0.3376823885360381
Tb2 Ti1 Ge2,6.576599639227442
Tb2 Tl1,10.01310678988546
Tb2 Tl1 Hg1,11.120944578284828
Tb2 Y2 O5,6.338076418539566
Tb2 Zn1 Ag1,8.56726622599075
Tb2 Zn1 Cu1,8.377531013094545
Tb2 Zn1 Cu1 Si2,7.149452559878768
Tb2 Zn1 Ir1,11.151648189214438
Tb2 Zn1 Ni2,8.94162700157657
Tb2 Zn1 Sb3,0.3665507100649371
Tb2 Zn1 Sb4,7.706868223905369
Tb2 Zn1 Sn3,0.2535598101856546
Tb3 Ag1,8.7769806325359
Tb3 Al1,7.681712986472995
Tb3 Al1 C1,5.518039521550573
Tb3 Al1 N1,7.751081368269277
Tb3 Al3 Ni1 Pd2,7.785542846173814
Tb3 Au1,10.48826837617422
Tb3 Bi1,9.55377826261383
Tb3 Ce1,8.042256631933263
Tb3 Co2 Ge4,8.541697589079888
Tb3 Dy1,8.290058693633839
Tb3 Er1,8.44201306001038
Tb3 Eu1,7.854624760359264
Tb3 Ga1 C1,7.951451260141187
Tb3 Hg1,10.02897675631671
Tb3 Ho1,8.397379931350429
Tb3 In1,8.506751112152527
Tb3 In1 C1,5.678683160556419
Tb3 In1 N1,8.823212479518054
Tb3 Lu1,8.698065970488642
Tb3 Mg1,6.958752712885359
Tb3 Mn3 Ga2 Ge1,7.911881361399136
Tb3 Mn3 Ga2 Si1,7.548852012343265
Tb3 Nd1,7.751981170536696
Tb3 Pb1,9.64052644274972
Tb3 Pb1 C1,6.218705134153525
Tb3 Pm1,7.772853785836382
Tb3 Pr1,7.608643417062663
Tb3 S1,8.633962078799868
Tb3 Sc1,7.1799224895725215
Tb3 Se1,8.932153753571805
Tb3 Si1,8.395996014300588
Tb3 Si2 C2,6.651616712544201
Tb3 Si3 Ni1,7.21092848654247
Tb3 Sm1,7.860241463321685
Tb3 Sm1 Ni4,8.756941248225838
Tb3 Sn1 C1,5.650650999028847
Tb3 Te1,8.74029017216001
Tb3 Tl1 C1,6.414129048854041
Tb3 Tm1,8.520119910035634
Tb3 V1,7.960221362723756
Tb3 Y1,7.319163782813485
Tb3 Yb1,8.180310282141896
Tb3 Zn1,8.378704982353138
Tb3 Zr1,8.066164652849736
Tb4 Cu1 Pt3,11.937813818057904
Tb4 Mg3 Co2,6.370818747077466
Tb4 Se3 N2,7.081406167305011
Tb4 Si3 Ge1,7.3855114720687745
Tb5 Mg1,7.337919689501848
Tb6 Co1 Te2,8.652835015109988
Tb6 Fe1 Bi2,9.305163553511218
Tb6 Fe1 Sb2,8.451956107542825
Tc1,11.100674069024633
Tc1 Ag3,9.954897122786814
Tc1 As3,8.053333115232975
Tc1 B1,0.1231790759732881
Tc1 B2,7.285371813528916
Tc1 Br3,4.045315424534598
Tc1 Br6 N2,3.662791980182356
Tc1 Br6 O2,4.1083522550572384
Tc1 C1,7.34636925218763
Tc1 Cl3,3.5679258661261413
Tc1 F3,4.30081348571079
Tc1 F6,2.735866659953804
Tc1 Ge2 Rh1,0.8267348233186501
Tc1 Ge3,8.206779417700151
Tc1 Ir1,16.668023422789012
Tc1 Ir1 Os1,15.518576629906402
Tc1 Ir3,19.31307692188272
Tc1 Mo1,10.491452558143276
Tc1 Mo1 W2,1.2236798444744517
Tc1 N1,7.689350803147866
Tc1 N2,7.162086971780057
Tc1 N2 Cl6,2.4521862721268697
Tc1 N2 F6,2.626046921487012
Tc1 Ni1,10.152407121223629
Tc1 Ni1 W1,11.382255541273404
Tc1 O2,6.587764662465707
Tc1 Os3,19.28695927323999
Tc1 Pt1,16.1781829839038
Tc1 Pt3,18.53659965725084
Tc1 Rh1,11.715490979565372
Tc1 Rh3,11.861769207627566
Tc1 Ru1,11.627504997883335
Tc1 Ru3,11.852003885921034
Tc1 Sn1 O3,6.950211234899953
Tc1 Sn1 Se1,7.055432857351537
Tc1 W1,15.07500046961932
Tc1 W2 C1,14.812575654834184
Tc2 Ge1 As1,0.8107999559360768
Tc2 Ge1 Mo1,0.8132395353926072
Tc2 Ge1 Sb1,0.754891338411733
Tc2 Ge1 W1,0.9960849719567528
Tc2 N1,10.179621045174732
Tc3 As1,10.476138618023343
Tc3 B1,10.303610336146631
Tc3 C1,10.055119078677809
Tc3 Ge1,10.444234524207715
Tc3 H1,9.48498150046882
Tc3 Ir1,13.924463167075954
Tc3 Mo1,10.788339384903995
Tc3 N1,10.45672055059406
Tc3 Ni1,10.763601207665138
Tc3 Os1,13.85481799898635
Tc3 Pb1,12.482288246954038
Tc3 Pd1,11.25232071051985
Tc3 Pt1,13.723238135219852
Tc3 Rh1,11.421496268951932
Tc3 Ru1,11.386766520506573
Tc3 Sn1,10.59261438186459
Tc3 Te1,10.863824399574307
Tc3 W1,13.207236554484092
Tc4 N3,9.77834313876625
Te1,5.433004202924278
Te1 As1,6.433465099350791
Te1 As2,6.193487255682003
Te1 As2 O4,4.609292821762559
Te1 Br2,3.264719429801853
Te1 Br6 N2,3.339023679111519
Te1 C1 N2,3.967471580472432
Te1 F6,3.234781508180956
Te1 I1,4.922312321961769
Te1 I2,3.8617540337971215
Te1 I4,4.541590559879614
Te1 Ir1,12.809571921440073
Te1 Mo1,8.560240273299856
Te1 Mo1 N1,6.853654744530028
Te1 Mo1 S1,3.6369370449394585
Te1 Mo1 Se1,4.026683951625759
Te1 Mo2 S3,5.422750600291838
Te1 Mo2 Se3,6.384187343521431
Te1 Mo6,8.247748335440662
Te1 N2,6.248322331570299
Te1 N2 Cl6,2.111664188902468
Te1 N2 O6,2.8290988877261465
Te1 O1,7.540285298683358
Te1 O2,5.965444581888851
Te1 O3,1.3241628266469725
Te1 O6,3.5118284094303465
Te1 Os1 Cl2,8.719395391540125
Te1 Pb1,7.470658429131061
Te1 Pb2 S1,7.497047218997364
Te1 Pb2 Se1,7.883293051345575
Te1 Pb3,9.593015619860736
Te1 Pd1,8.797556863442345
Te1 Pd1 I2,5.923699568719312
Te1 Pd1 O3,6.970549607483635
Te1 Pd1 Se1,7.451785988786256
Te1 Pd3,10.537837305029608
Te1 Pt1,11.163522065945369
Te1 Pt1 Se1,9.281053261643116
Te1 Rh1,9.36346429359406
Te1 Rh1 Cl1,5.830210987534568
Te1 Ru1 Pb1,8.957341371792864
Te1 Ru1 Se1,7.7745818564759235
Te1 S3,4.296713420439302
Te1 Se1,5.450631189129453
Te1 Se2,5.139526760089229
Te1 W1 O6,6.012246344914017
Te1 W1 S1,4.868999127645586
Te1 W1 Se1,5.178042236733031
Te1 W2 Se3,8.337506402162768
Te2 Au1,9.343096816165314
Te2 Au1 Cl1,7.194598031918937
Te2 Au1 I1,7.416666253290198
Te2 Ir1,9.40160627929438
Te2 Mo1,1.447761723627067
Te2 Mo1 W1 S2,4.245243331618618
Te2 Mo1 W1 Se2,4.590996915242269
Te2 Mo1 W2 S4,4.868283876439076
Te2 Mo1 W2 Se2 S2,5.015354750351619
Te2 Mo1 W2 Se4,5.452117892718839
Te2 Mo2 W1 S4,4.361915058771605
Te2 Mo2 W1 Se2 S2,4.567938003390883
Te2 Mo2 W1 Se4,4.989059046854304
Te2 Mo3 S4,3.867372456793466
Te2 Mo3 Se2 S2,4.222392810802434
Te2 Mo3 Se4,4.531461603904239
Te2 Pd1,7.914048115404642
Te2 Pt1,9.645396398881404
Te2 Rh1,7.928542416055047
Te2 Ru1,8.405141492059311
Te2 W1,3.8042057269551055
Te2 W2 N2 O1,5.60707883478011
Te2 W3 S4,5.382929680835447
Te2 W3 Se2 S2,5.670322179292882
Te2 W3 Se4,5.9148967244267086
Te3 As2,6.045190459818002
Te3 Au1,7.738852762525378
Te3 Mo2 Se1,6.779690987920371
Te3 Se1,6.662285245301941
Te4 As2 I2 O1,4.325906718859729
Te4 Mo1 W1,4.793324185704225
Te4 Mo1 W2 S2,5.221025522418575
Te4 Mo1 W2 Se2,5.590977714187796
Te4 Mo2 W1 S2,4.888928017964478
Te4 Mo2 W1 Se2,5.168996552612703
Te4 Mo3 S2,4.453739507284146
Te4 Mo3 Se2,4.728145948792831
Te4 Pt3,6.5985607877529455
Te4 Rh3,8.607648755000326
Te4 W3 S2,5.809114442749192
Te4 W3 Se2,6.022580393224587
Te6 Mo1 W2,5.711078137057866
Te6 Mo2 W1,5.324117844766458
Ti1,2.2868121704973263
Ti1 Ag1,7.340358691747333
Ti1 Ag1 Au2,1.0053176559624222
Ti1 Ag1 F6,3.669678299082285
Ti1 Ag1 Hg2,11.51057957951651
Ti1 Ag1 Se2,5.983677568121115
Ti1 Al1,3.7316341862655658
Ti1 Al1 Au1,9.08277016997867
Ti1 Al1 Au2,11.5069058015213