Composition,Density
Mn1 Cu2 Sn1 S4,4.336961616284762
Mn1 Cu2 Sn1 Se4,5.310777266438359
Mn1 Cu2 Sn1 Te4,5.664875131012773
Mn1 Cu3,8.227023672966883
Mn1 Cu4 Sn1,8.308205525657293
Mn1 F2,3.744000315489349
Mn1 F3,3.1439530903696813
Mn1 Fe1,8.733741964154095
Mn1 Fe1 As1,7.54732458474491
Mn1 Fe1 B1,7.457396479220726
Mn1 Fe1 Co1 Ge1,8.604290624016768
Mn1 Fe1 Ge1,8.287848677190498
Mn1 Fe1 O2,5.5293577314793865
Mn1 Fe1 P2,6.174843342048349
Mn1 Fe1 Pd6,10.314457717396133
Mn1 Fe1 Pt2,15.772899009057925
Mn1 Fe1 Se1 S1,6.557753109093016
Mn1 Fe1 Si2,6.145428312645422
Mn1 Fe1 Si4,4.835213497649541
Mn1 Fe1 Sn4,8.646234158065445
Mn1 Fe1 Te1,7.92366317652893
Mn1 Fe2 Ge1,0.7544966318330463
Mn1 Fe2 N2,7.078350878389487
Mn1 Fe2 O3,5.428367947868352
Mn1 Fe2 P1,7.6478593216333
Mn1 Fe2 Si1,7.393942888166583
Mn1 Fe3,8.114377240341573
Mn1 Fe4,8.195264320536085
Mn1 Ga1,7.688283748721617
Mn1 Ga1 As1 N1,5.219603663212741
Mn1 Ga1 Co2,8.581608964697487
Mn1 Ga1 Cu2,0.6267493026082902
Mn1 Ga1 Cu2 Se4,5.2572868063985165
Mn1 Ga1 Fe1 Co1,8.51542499462186
Mn1 Ga1 Fe2,0.3942921074962108
Mn1 Ga1 Ge1,7.1195327546478495
Mn1 Ga1 Ir1,10.652481555750867
Mn1 Ga1 Ir2,14.811791708727045
Mn1 Ga1 N2,5.921136043079438
Mn1 Ga1 Ni1,7.984245464770362
Mn1 Ga1 Ni2,8.195911144484393
Mn1 Ga1 Pd2,0.7800032302205854
Mn1 Ga1 Pt1,10.623088363237631
Mn1 Ga1 Pt2,14.14897844127116
Mn1 Ga1 Rh2,9.729250654060356
Mn1 Ga1 Ru1,7.642842875814718
Mn1 Ga1 Ru2,9.97431085447836
Mn1 Ga2 Co1,8.512900312991903
Mn1 Ga2 Ni1,7.857536982278172
Mn1 Ga2 S4,3.416274238833781
Mn1 Ga2 Se4,4.675328555199474
Mn1 Ga2 Tc1,8.941849241999714
Mn1 Ga4,6.255940855791475
Mn1 Ge1,7.847821990880242
Mn1 Ge1 As2,4.754414903619375
Mn1 Ge1 P2,3.927400869671178
Mn1 Ge1 Pd1,8.464875643682598
Mn1 Ge1 Pd2,9.385194515785605
Mn1 Ge1 Rh1,8.471750146027341
Mn1 Ge1 Rh2,9.788882021494958
Mn1 Ge1 Ru2,10.074323577137433
Mn1 Ge1 Te2,6.151177517994309
Mn1 Ge2,7.712033454057284
Mn1 Ge3,7.12792097876282
Mn1 H1,6.211247521341704
Mn1 H1 O2,3.7892581824085902
Mn1 H2 Cl2,2.6241344603147687
Mn1 H2 O2,2.934771452840716
Mn1 H4 Br2 O2,2.976893632241412
Mn1 H4 Cl2 O2,2.155329516328853
Mn1 Hg1,11.479037992128609
Mn1 Hg1 O3,8.585315438643036
Mn1 Hg1 Pd2,0.869579811923485
Mn1 Hg1 S2,5.428565376033487
Mn1 Hg2 S3,6.02998301889138
Mn1 Hg2 Te3,6.557178399159382
Mn1 Hg3,12.647029622064473
Mn1 Hg3 S4,6.293008447147708
Mn1 I2,4.463106048543078
Mn1 In1 Ag1 Pd1,9.178470247483508
Mn1 In1 As1 N1,5.619562009009052
Mn1 In1 Cu1 S4,3.7582248292457465
Mn1 In1 Cu1 Te3,5.461270441428235
Mn1 In1 Cu2,8.35328302067344
Mn1 In1 F3,4.699313223037958
Mn1 In1 Fe1,7.8586009874352
Mn1 In1 Ga1 S4,3.764384252200211
Mn1 In1 Ni2,8.613860183717348
Mn1 In1 Pd2,9.579941271875995
Mn1 In1 Pt2,1.060615464027639
Mn1 In1 Rh2,9.926416733721032
Mn1 In2 Se2 S2,4.3441116066852175
Mn1 In2 Se4,4.837884419632604
Mn1 In2 Te4,5.272265114108761
Mn1 In2 W1,10.721637445798544
Mn1 In3,7.423684899273656
Mn1 Ir1,15.79371569526229
Mn1 Ir3,18.80669977004368
Mn1 Mo1 As2,7.793389880249467
Mn1 Mo1 N2,7.825010894817412
Mn1 Mo3,6.084260671165477
Mn1 N1,5.7519717049263335
Mn1 N1 Cl3,3.185363105736711
Mn1 N1 F3,3.309472777322836
Mn1 N2 Cl4,2.1507499690323573
Mn1 N2 Cl6,2.047637337805776
Mn1 Nb1 As1,6.956487504143039
Mn1 Nb1 Ge1,8.029379912500733
Mn1 Nb1 Ru2,9.661758933079344
Mn1 Nb1 Si1,7.009998038433622
Mn1 Nb1 Tc2,0.7095305891390034
Mn1 Nb2 Cr1,0.628020101429271
Mn1 Nb2 Mo1,0.4645104534529792
Mn1 Nb2 Os1,0.9514860109666664
Mn1 Nb2 Re1,0.8712427883609889
Mn1 Nb2 Ru1,0.9830090626513348
Mn1 Nb2 S4,4.749997453646697
Mn1 Nb2 Tc1,0.6741581076167571
Mn1 Ni1,7.608402439684274
Mn1 Ni1 As1,1.2381330564306912
Mn1 Ni1 Ge1,7.1343031909251895
Mn1 Ni1 N2,6.600851597992037
Mn1 Ni1 O2,5.773643577767428
Mn1 Ni1 P1,6.409675841400552
Mn1 Ni1 P2,6.135435314811644
Mn1 Ni1 Sb1,7.524591448764478
Mn1 Ni1 Sb2,7.854666317662192
Mn1 Ni1 Se2,7.383797800433034
Mn1 Ni1 Sn1 Pd1,9.17654189621288
Mn1 Ni1 Sn1 Rh1,9.35398268639857
Mn1 Ni1 Te2,7.585618592577943
Mn1 Ni2 Ge1,8.342297547077049
Mn1 Ni2 N2,7.512864420405338
Mn1 Ni2 Sb1,8.806981696642797
Mn1 Ni2 Sn1,8.731592942766177
Mn1 Ni3,8.498199320047505
Mn1 Ni3 O4,6.181878493834788
Mn1 O1,2.349830771018693
Mn1 O1 F1,3.5606581343878374
Mn1 O2,0.5569346509628494
Mn1 O3,3.673304845461494
Mn1 Os3,19.15555363602981
Mn1 P1,3.927478445901474
Mn1 P1 Pd1,7.416950373276977
Mn1 P1 Rh1,8.204064422182606
Mn1 P2,4.843578698617817
Mn1 Pb1 N2,7.863965651832617
Mn1 Pb1 O3,8.58476602805571
Mn1 Pb2 N2,9.390746513826167
Mn1 Pd1,8.761293366923274
Mn1 Pd1 Au2,1.1194244775007365
Mn1 Pd2 Au1,0.9811317892242196
Mn1 Pd2 N2,8.769599009742464
Mn1 Pd3,10.095606115610698
Mn1 Pt1,13.670936001984614
Mn1 Pt1 F6,5.133091776456328
Mn1 Pt2,15.990239202292132
Mn1 Pt3,17.432671505765754
Mn1 Re1 B2,11.68488019613627
Mn1 Re1 Pt1,14.411326274911458
Mn1 Rh1,9.28037591030588
Mn1 Rh2 Pb1,11.773783542116345
Mn1 Ru1,10.333444893049077
Mn1 Ru2 W1,1.003126215613563
Mn1 Ru3,11.152310561885574
Mn1 S1,3.391422169187109
Mn1 S2,2.768381832199617
Mn1 Sb1,4.957066392928498
Mn1 Sb1 Au1,9.205391850104396
Mn1 Sb1 Ir1,10.711063632662803
Mn1 Sb1 Pd1,8.06923816016333
Mn1 Sb1 Pd2,9.51323427934674
Mn1 Sb1 Pt1,10.065867073157166
Mn1 Sb1 Rh1,8.06679796114322
Mn1 Sb1 Rh2,10.071926799874726
Mn1 Sb1 Ru2,10.348787961029458
Mn1 Sb4,6.325064796859907
Mn1 Se1,4.228940491146177
Mn1 Si1,5.972686451130984
Mn1 Si1 As2,4.175440444733782
Mn1 Si1 Ni1,5.777008099295662
Mn1 Si1 Ni2,7.041496604695273
Mn1 Si1 Os2,1.1386968511951798
Mn1 Si1 P2,2.9941881299872675
Mn1 Si1 Rh2,8.867205649007555
Mn1 Si1 Ru2,9.126979124025798
Mn1 Si1 Tc2,8.75097410732249
Mn1 Si2 Ni1,6.146028590189782
Mn1 Si2 Tc1,0.519899878834146
Mn1 Sn1,4.986214781773823
Mn1 Sn1 Au1,9.465777228015597
Mn1 Sn1 F6,3.828596073124665
Mn1 Sn1 Ir1,10.503101979177512
Mn1 Sn1 Pd2,9.460658676535232
Mn1 Sn1 Pt1,10.169742193236802
Mn1 Sn1 Rh2,10.04679180273051
Mn1 Sn1 Ru2,10.261701815486116
Mn1 Sn1 Te2,7.238625824262556
Mn1 Sn2,8.165669136955971
Mn1 Sn3,6.955543625938202
Mn1 Tc1 Os1,11.43713595078908
Mn1 Tc1 Pd1,8.88934023418067
Mn1 Tc2 As1,0.7526608675208808
Mn1 Tc2 Ge1,0.7289831431763445
Mn1 Tc2 Mo1,0.7647641453518497
Mn1 Tc2 Sb1,0.7156334055561344
Mn1 Tc2 W1,0.9123919142762096
Mn1 Te1,4.635141673153785
Mn1 Te1 O4,4.752126152890698
Mn1 Te1 Pd1,7.466113803545842
Mn1 Tl1 Cl3,4.661371049938466
Mn1 Tl1 Cu1 Se2,6.885717689145439
Mn1 Tl1 F3,6.532403137300308
Mn1 Tl1 Pd2,0.8043387881199239
Mn1 Tl1 Rh2,0.8880876869251494
Mn1 Tl2 Ge1 Te4,6.704631518117452
Mn1 Tl2 Sn1 Te4,6.784708514106892
Mn1 Tl3,10.446436902919686
Mn1 V1,7.386353932030845
Mn1 V1 As1,6.895854374450807
Mn1 V1 As2,6.978359828773508
Mn1 V1 Co4 Si2,7.318292068726342
Mn1 V1 Cr2 Te4,6.648031130235799
Mn1 V1 Fe4 Si2,7.24374553131558
Mn1 V1 N2,5.417518295764222
Mn1 V1 Ni1,6.665725221849591
Mn1 V1 Ni4 Sn2,8.594662226217569
Mn1 V1 Os2,1.1972169178218603
Mn1 V1 P2,5.640603431302336
Mn1 V1 Ru2,9.371072618595711
Mn1 V1 S2,4.316515223783356
Mn1 V1 Sb1,8.078896578396462
Mn1 V1 Te2,7.792784186914375
Mn1 V2 Cr1,7.15161521454568
Mn1 V2 Fe1,0.5459359092462904
Mn1 V2 Mo1,0.6291022703616425
Mn1 V2 Os1,11.138071574248707
Mn1 V2 Re1,0.8134800625155783
Mn1 V2 Ru1,0.6148423786539672
Mn1 V2 Si6,4.879519366306531
Mn1 V2 Tc1,0.6511293914748638
Mn1 V3,6.85173011460275
Mn1 W1 N2,10.733237151290467
Mn1 Zn1,7.407671468975086
Mn1 Zn1 Au2,1.0281189391711087
Mn1 Zn1 Cd1 Te3,5.240262645769927
Mn1 Zn1 Co2,0.6433662047300966
Mn1 Zn1 F6,3.6342640616666944
Mn1 Zn1 Ir2,15.176359506735064
Mn1 Zn1 N2,5.562162659046756
Mn1 Zn1 Ni2,0.7500425149999278
Mn1 Zn1 O3,5.348894748303294
Mn1 Zn1 Pd2,0.7467076445284941
Mn1 Zn1 Pt2,1.14514650606055
Mn1 Zn1 Rh2,9.761315698983893
Mn1 Zn1 S2,3.608576773543656
Mn1 Zn1 Se2,4.655106789442383
Mn1 Zn1 Te2,5.054892830984202
Mn1 Zn2 Co1,0.6032159417797621
Mn1 Zn2 Pt1,0.7951222232270558
Mn1 Zn2 Rh1,0.5778533506100929
Mn1 Zn3,7.20724264300139
Mn1 Zn3 S4,3.794233803566176
Mn2 Al1 B2,5.786357229899588
Mn2 Al1 Co1,6.868235049513664
Mn2 Al1 Cr1,6.653173779223157
Mn2 Al1 Cu3,6.77276607323318
Mn2 Al1 Mo1,0.4645632628790621
Mn2 Al1 Re1,10.759367127377365
Mn2 Al1 Tc1,0.5229916412826383
Mn2 Al1 V1,6.3376051860545415
Mn2 Al1 W1,10.371408998262186
Mn2 Al2 Cu1,5.915860001426736
Mn2 As1,7.413349833293616
Mn2 As1 P1,6.75523412443305
Mn2 Au1,10.958240272187115
Mn2 Au5,15.07567174922076
Mn2 B1,7.60981702293654
Mn2 B4 Mo1,6.883262902680868
Mn2 B4 W1,9.291245994812254
Mn2 Be1 Cr1,0.4247186979490389
Mn2 Cd1 N2,6.2792204200589925
Mn2 Cd1 Te3,6.671715856683583
Mn2 Co1 As1,8.550562645597617
Mn2 Co1 Ge1,8.506951550910534
Mn2 Co1 Ir1,0.7118144633568964
Mn2 Co1 Mo1,0.6349026797160451
Mn2 Co1 N2,6.734595041651739
Mn2 Co1 Ni1 Sb2,7.111432465048092
Mn2 Co1 O6,4.200843325247712
Mn2 Co1 Re1,0.7524957397516031
Mn2 Co1 Sb1,8.97398121684511
Mn2 Co1 Si1,7.341946189742852
Mn2 Co1 Sn1,8.243119653527705
Mn2 Co1 Tc1,0.6965170539826151
Mn2 Co2 C1,7.36656287474998
Mn2 Co2 O5,5.277101861865245
Mn2 Cr1 Co1,7.71618588818962
Mn2 Cr1 Fe1,0.5423519646607768
Mn2 Cr1 I6,4.71448744493296
Mn2 Cr1 Ni1 Sb2,6.976382965714588
Mn2 Cr1 O6,4.0924230417515295
Mn2 Cr1 Ru1,0.5498962621850999
Mn2 Cr1 Se3,5.690257085198115
Mn2 Cr1 Si1,0.4612204086229341
Mn2 Cu1 Ge1,7.7404509188530035
Mn2 Cu1 N2,6.107001857061057
Mn2 Cu1 Ni1 Sb2,7.278519798588667
Mn2 Cu1 Sb1,8.117297043026618
Mn2 Cu1 Sb2 Pd1,7.3563456409843075
Mn2 Cu1 Sb2 Pt1,8.543007284209356
Mn2 Fe1 N2,6.849148887859081
Mn2 Fe1 O6,4.093830329018482
Mn2 Fe1 Re1,0.9217255214116336
Mn2 Fe1 Se3,7.250823853218742
Mn2 Fe4 Si1 Ge1,7.984420058823333
Mn2 Ga1 Co1,7.743307903743011
Mn2 Ga1 Co4 Ge1,8.620293846549554
Mn2 Ga1 Cu3,7.5747743421050755
Mn2 Ga1 Mo1,0.5690328743817424
Mn2 Ga1 Ni1,7.461463461275938
Mn2 Ga1 Rh1,8.777695581380843
Mn2 Ga1 W1,11.64361181725201
Mn2 Ga2 S5,3.6859296892190048
Mn2 Ge1,7.440030533774951
Mn2 Ge1 Ru1,9.16244560392404
Mn2 Ge1 W1,0.7847888639899263
Mn2 In1 Ag1 Te4,5.23974738645677
Mn2 In1 Co1,8.004768564356366
Mn2 In1 Cu1 Se4,5.646923160259435
Mn2 In1 Cu1 Te4,6.627205173589039
Mn2 In1 Cu4 Sn1,8.30541287510748
Mn2 In1 N2,6.3254630584104
Mn2 In1 Sb1 Pd4,9.58444882628713
Mn2 In1 Sn1 Pd4,9.628945087448097
Mn2 In2 Cu1 Pd3,9.2741996965761
Mn2 In2 Se5,5.195966363253649
Mn2 Ir1 Rh1,11.925062372974836
Mn2 Mo1 Rh1,0.5139382135056615
Mn2 N1,6.765493316110953
Mn2 Nb1 Al1,7.002486675426129
Mn2 Nb1 Ga1,0.6007762766206405
Mn2 Nb1 V1,0.5963230154830802
Mn2 Ni1 N2,6.933715721123276
Mn2 Ni1 O3,5.566697754255245
Mn2 Ni1 Sb1,8.749423073354924
Mn2 Ni1 Sb2 Pt1,8.744718637782485
Mn2 Ni1 Sn1,8.62853219796349
Mn2 O3 F1,4.556793413413328
Mn2 P1,6.706865772855447
Mn2 Pd1 Pt1,11.19497715759581
Mn2 Pt1 Rh1,11.50127703438368
Mn2 Pt2 O5,8.736971072328938
Mn2 Sb1,7.096035154359545
Mn2 Sb1 As1,7.009998873106066
Mn2 Sb1 N1,6.355149909642803
Mn2 Sb1 Te1,6.443897421806156
Mn2 Sb2 Pt1 Au1,9.671892286073144
Mn2 Sb2 Pt1 Rh1,9.055783515292504
Mn2 Se1 N2,6.419296315224963
Mn2 Se1 S1,6.485548798802188
Mn2 Si1 Ni1,7.157177142598017
Mn2 Si1 Rh1,7.426552152078045
Mn2 Si1 Ru1,8.157901138149718
Mn2 Si1 W1,0.6950997418291321
Mn2 Sn1,7.850711814849849
Mn2 Sn1 Ru1,8.835136969176613
Mn2 Sn1 S4,4.048046797167071
Mn2 Sn1 Sb1 Pd4,9.607566531191445
Mn2 Sn1 W1,12.06178465012028
Mn2 Te1 Se1,6.10033922879852
Mn2 V1 Ga1,7.749638334470845
Mn2 V1 Ge1,8.08768132768982
Mn2 V1 In1,7.494699077360767
Mn2 V1 Si1,6.869624058638984
Mn2 V1 Sn1,8.487588905619003
Mn2 Zn1 As2,6.198580091414625
Mn2 Zn1 N2,5.11033413192025
Mn3 Ag1 N1,7.418391781984578
Mn3 Al1,6.821163672803484
Mn3 Al1 C1,6.135568186101125
Mn3 Al1 N1,6.379693955675979
Mn3 Al2 V3,5.909725903314819
Mn3 As1,7.695538446152576
Mn3 As1 N1,3.8025660993085273
Mn3 Au1 N1,11.168130167617202
Mn3 B4,6.153079405390316
Mn3 B4 W1,8.976638066796054
Mn3 Be1,7.2008975737089
Mn3 Bi1,9.030051572260083
Mn3 Br1,5.940750140936983
Mn3 Cd1,7.280022700059087
Mn3 Cd1 Te4,4.891237496895715
Mn3 Co1,8.771772449657565
Mn3 Co1 As2,7.427003737094314
Mn3 Co1 As3 Rh2,8.410365118827182
Mn3 Co1 P4,6.149601870779596
Mn3 Co2 As3 Rh1,8.282096299399797
Mn3 Cr1 As4,7.4416643798517725
Mn3 Cr1 P4,5.82626550422482
Mn3 Cr1 Te4,6.503355600272738
Mn3 Cu1 N1,4.386712985634877
Mn3 Fe1,8.1272547155484
Mn3 Fe1 As4,7.614804014384711
Mn3 Fe1 P4,6.08968067018192
Mn3 Fe3 Ge2,8.256852451871675
Mn3 Fe3 Si2,7.278949561672907
Mn3 Ga1,7.958322130908212
Mn3 Ga1 C1,4.144494965483861
Mn3 Ga1 N1,7.633000075558407
Mn3 Ge1,7.811087907185562
Mn3 Ge1 C1,7.589017683626261
Mn3 Hg1,9.411319590351324
Mn3 Hg1 N1,9.521937560061431
Mn3 I1,8.059231630498878
Mn3 In1 C1,3.690810934748907
Mn3 Ir1,12.625386765022782
Mn3 Ir1 N1,10.3305407495993
Mn3 N2,6.485063688169957
Mn3 Ni1 N1,6.973612954425175
Mn3 Ni1 O4,5.41635496761041
Mn3 Ni3 Sn2,8.49685822202352
Mn3 Ni4 Sb1,8.156924262441137
Mn3 Ni4 Sn1,8.204397008718752
Mn3 Os1,12.555966855189835
Mn3 Pd1 N1,7.727340164830622
Mn3 Pd5,9.443344594235665
Mn3 Pt1,10.158762973124787
Mn3 Pt1 N1,10.112862674327008
Mn3 Re1,11.81573283902016
Mn3 Rh1,9.484167510994183
Mn3 Rh1 N1,4.189327037303243
Mn3 S1,7.134536273194737
Mn3 Sb1,8.581340818454315
Mn3 Sb1 N1,8.332527145057247
Mn3 Sb2,7.817111462227095
Mn3 Si1,7.078772647934179
Mn3 Sn1,7.724735157020769
Mn3 Sn1 C1,8.314758135519723
Mn3 Sn1 H1,8.22780262688586
Mn3 Sn1 N1,8.465284470655254
Mn3 Te1,8.688586420287162
Mn3 Te2 Se1,6.074873764417569
Mn3 Tl1,9.419602369649494
Mn3 V1 P4,5.6867009539454845
Mn3 V2 Ga2 Co1,7.993545490396881
Mn3 Zn1,7.733556489960613
Mn3 Zn1 C1,4.15217274858554
Mn3 Zn1 N1,7.447453627386044
Mn4 As1 P3,6.36498720838058
Mn4 Bi1 Sb3,7.7778656041391985
Mn4 Cu1,8.451698257273716
Mn4 Fe2 P3,6.655343742883294
Mn4 Ga1,8.27850082955435
Mn4 Hg3 Au1,11.71618767792304
Mn4 In1 Sb3,7.185609621297896
Mn4 N1,4.784524773648044
Mn4 S3 N2,4.597861430632296
Mn4 Sb1 As1,7.61536504324586
Mn4 Sb3 As1,7.092110291167199
Mn4 Te3 Se1,6.431590034757796
Mn5 Al2 V1,6.501385296188444
Mn5 Sb4,7.289240660617664
Mn6 Ga1 Ge1,8.113852241925539
Mn6 Pt1 Rh1,10.88755092898326
Mo1,9.343907721152457
Mo1 As1,8.593083035160324
Mo1 As2,7.877350681896773
Mo1 Br3,3.758166404621283
Mo1 C1,6.91181287686562
Mo1 Cl2 O1,3.2683170769123846
Mo1 Cl3,3.2113531964883264
Mo1 Cl6,2.4325869656413004
Mo1 F3,3.4289980333439094
Mo1 F5,4.078536447193439
Mo1 F6,2.471964422006442
Mo1 H1,8.431613610430865
Mo1 I3,4.122189775589498
Mo1 Ir1,15.856240048544882
Mo1 Ir3,18.95428940976868
Mo1 Ir4,19.415721716446527
Mo1 N1,4.5657650551615925
Mo1 N2,5.300060403613052
Mo1 N2 Cl6,2.092463488259203
Mo1 O2,4.440225458483624
Mo1 O3,4.098186169157136
Mo1 Os1,15.733006061668924
Mo1 P1,5.263758469741812
Mo1 P1 Ru1,9.12782492787591
Mo1 P2,5.8904735664473815
Mo1 P3,5.629258816794205
Mo1 Pb1,12.306854328215538
Mo1 Pb1 O3,8.413561405503058
Mo1 Pb3,10.93611956731171
Mo1 Pd1,10.845452794161549
Mo1 Pd1 Ru1 Rh1,11.310515406837917
Mo1 Pd1 Ru2,11.336313371211402
Mo1 Pd2,11.203619706497976
Mo1 Pd2 Rh1,11.244684640098832
Mo1 Pd3,11.159860401718756
Mo1 Pd4,11.202820774796464
Mo1 Pt1,15.483747493744731
Mo1 Pt2,17.39009883847262
Mo1 Pt2 Br1,14.046543533389134
Mo1 Pt3,17.948420424410788
Mo1 Rh1,10.995395673031366
Mo1 Rh3,11.43048872932368
Mo1 Ru1,10.97058156361833
Mo1 Ru3,11.508470490145957
Mo1 S2,1.729127580420431
Mo1 S3,1.149118597402894
Mo1 S6,0.1307823904788249
Mo1 Se1,8.6525223046713
Mo1 Se1 N1,6.258643236796837
Mo1 Se1 S1,3.256776961693817
Mo1 Se2,2.4809439300963136
Mo1 W1,14.42372587732123
Mo1 W1 C2,11.966286040988832
Mo1 W1 O6,5.342380667068829
Mo1 W1 S4,3.440378961817913
Mo1 W1 Se2 S2,3.9397431506222063
Mo1 W1 Se4,4.379170905782481
Mo1 W2 S6,4.247880227227257
Mo1 W2 Se2 S4,4.629723860505534
Mo1 W2 Se4 S2,4.983424932660494
Mo1 W2 Se6,5.295925359843042
Mo2 As1 P3,6.446781276157953
Mo2 As3 P1,7.474378509701262
Mo2 C1,8.563766451005703
Mo2 C1 N1,8.727795008886256
Mo2 Cl4 O1,3.039922980671728
Mo2 H1 O6,4.114325358208781
Mo2 Ir2 C1,14.403973951494429
Mo2 N1,9.305561399905502
Mo2 O1,7.926795760829189
Mo2 Rh1,10.64992603627378
Mo2 Rh2 C1,10.221709809816945
Mo2 S4 N1,2.7450270099880485
Mo2 Se1 S3,4.787235172196771
Mo2 W1 S6,3.682493960689167
Mo2 W1 Se2 S4,4.0204489560176375
Mo2 W1 Se4 S2,4.462937524825379
Mo2 W1 Se6,4.799300739621022
Mo2 W2 C3,12.296220767238443
Mo2 W2 O5,9.574218404801131
Mo3 C2,8.769511646413191
Mo3 H1,8.539258125186139
Mo3 I1,9.892009242130026
Mo3 Ir1,12.732657890506024
Mo3 N2,7.430919613566767
Mo3 Os1,12.676168145087573
Mo3 Os3 C2,14.35557531823866
Mo3 Pd1,10.468143136309934
Mo3 Pt1,12.666325713651156
Mo3 Ru3 C2,10.036187017496514
Mo3 Se1,9.629240088688777
Mo3 Se2 S4,3.5526491112207497
Mo3 Se4 S2,3.947794903131911
Mo4 C3,8.638872067816726
Mo4 Ir1,12.119558102836224
Mo4 Ru1,10.356530834319496
Mo5 As4,8.352971018830312
Mo6 Ir1 Ru1,11.533247946344863
Mo6 Os1 Ru1,11.500257907150578
N1 Cl1,3.255577145279493
N1 Cl1 O2,1.5838367176143808
N1 Cl1 O3,1.5620785573418323
N1 Cl1 O4,1.6434904440990086
N1 F1,1.0604923487800857
N1 O1,1.4287072802123415
N2,0.5361421203459383
N2 O1,1.079515177103214
N3 Cl1,1.3040026149442696
Na1,0.1091217270666908
Na1 Ag1 C2,3.3612915261276712
Na1 Ag1 O1,5.238583989573788
Na1 Ag1 O2,4.897728213300405
Na1 Ag1 O3,4.270328335252566
Na1 Ag1 Pd2,0.5469947947690176
Na1 Ag2,6.076765535917636
Na1 Ag2 Pb1,0.60260279664844
Na1 Ag2 Pd1,0.4869395826709787
Na1 Ag2 Sn1,0.5403026026167213
Na1 Ag3,7.442921382900342
Na1 Al1 F4,2.592522051096216
Na1 Al1 Ge1,3.1373434127565325
Na1 Al1 O2,3.4852244516514785
Na1 Al1 O3,3.0741520266525155
Na1 Al1 Se2,3.64319131712653
Na1 Al1 Si1,2.06971694308038
Na1 Al1 Si1 O5,2.2608996192904875
Na1 Al1 Si4,2.3937155657500244
Na1 Al1 Te2,4.2691309588580015
Na1 Al2 Sb1,3.378742539829632
Na1 Al3,2.2218305543243337
Na1 As1,3.942302961443224
Na1 As1 F6,2.6021608837636943
Na1 As1 O3,4.709481155104125
Na1 As1 Se2,4.619623465045628
Na1 As2,4.234870481492708
Na1 Au1 C2,5.318219808506616
Na1 Au1 O2,6.533399928762173
Na1 Au2,10.9518172321153
Na1 Au3,13.650399077082048
Na1 B1,1.4516494178608597
Na1 B1 C1,2.6363595389532946
Na1 B1 H4,1.1276225846661476
Na1 Be1 As1,3.08942271816939
Na1 Be1 H3,1.5569324381376954
Na1 Be1 O3,2.8726689665531
Na1 Be1 Sb1,3.615104303739422
Na1 Bi1,6.627664548383457
Na1 Bi1 F6,4.200822787636647
Na1 Bi1 O2,6.804399981741334
Na1 Bi1 Pd2,0.7473813472612426
Na1 Bi1 S2,5.012789834880502
Na1 Bi1 Se2,5.881564355947738
Na1 Bi1 Te2,6.019183235399421
Na1 Bi3,8.795330604763542
Na1 Br1,3.120798709320274
Na1 Br1 O2,3.95632697640544
Na1 C1,1.6063140657408086
Na1 C1 N1,1.4411222203612422
Na1 C1 N1 O1,0.5876164241637645
Na1 C1 O2,1.7903641410179296
Na1 C2,1.487886439510523
Na1 Ca1 As1,2.709004488648613
Na1 Ca1 Au2,8.178974994080852
Na1 Ca1 H6 Ir1,4.600387616413313
Na1 Ca1 Hg2,0.5856797655983741
Na1 Ca1 La1 F6,4.203760589180665
Na1 Ca1 Mg6,1.661677735011739
Na1 Ca1 N1,2.0127559797450063
Na1 Ca1 O3,2.014986243326152
Na1 Ca1 Pb2,6.627956796609289
Na1 Ca1 Sb1,3.420323855952536
Na1 Ca1 Tl2,6.80489668806935
Na1 Ca2 Al1,0.125815560858103
Na1 Ca2 In1,2.898233628721891
Na1 Ca2 Rh1,0.2484054335266967
Na1 Ca2 Tl1,4.075918582314641
Na1 Ca3,1.441184940080722
Na1 Cd1 Hg2,8.978624539098846
Na1 Cd1 In2,0.4582317046392843
Na1 Cd1 N1,4.023706508332871
Na1 Cd1 O2,5.161379032623823
Na1 Cd1 O3,3.948630055695392
Na1 Cd1 Pb2,0.6563924227588157
Na1 Cd1 Pd2,0.5739597950458843
Na1 Cd2 Ag1,0.4422208861550998
Na1 Cd2 Au1,8.788642270138004
Na1 Cd2 In1,0.446376893027602
Na1 Cd2 Pd1,0.4628611789633185
Na1 Cd2 Pt1,9.439588325781132
Na1 Cd2 Rh1,0.5859676847369844
Na1 Cd3,6.254623319325292
Na1 Cd4 As3,5.687482391453968
Na1 Ce1 Au2,9.84393900839368
Na1 Ce1 Hg2,8.648145880823655
Na1 Ce1 Mg6,2.4664028906993662
Na1 Ce1 O2,5.164585886181267
Na1 Ce1 S2,3.8013256420381736
Na1 Ce1 Se2,4.7859496018178245
Na1 Ce1 Tl2,8.370920664469008
Na1 Ce2 Se3,5.504126188906213
Na1 Ce3,6.098627488975132
Na1 Cl1,2.1053060843576104
Na1 Cl1 O2,1.9742216035148
Na1 Cl1 O4,2.0232594149880088
Na1 Cl3,2.544320526245721
Na1 Cl7,1.942158044702851
Na1 Co1 Cu3 Se4,4.940218760041914
Na1 Co1 O2,4.37779602824267
Na1 Co1 O3,4.047609362092613
Na1 Co2 O4,3.930112256678008
Na1 Co3,5.280437436602272
Na1 Cr1 F6,2.5831372852661056
Na1 Cr1 N1,3.3659546314682744
Na1 Cr1 N2,3.1468044940646607
Na1 Cr1 O2,1.371122000137483
Na1 Cr1 O3,3.8785989575696806
Na1 Cr1 S2,3.153634229862284
Na1 Cr1 Se2,3.20971672388681
Na1 Cr2 S4,3.0372646881983054
Na1 Cu1,4.157239761567835
Na1 Cu1 N1,4.038936013828593
Na1 Cu1 O1,4.445388440960803
Na1 Cu1 O2,3.41279081808939
Na1 Cu1 S1 I1,4.533082737452468