Composition,Density
Ti1 Al1 Co2,6.432944348904397
Ti1 Al1 Cu2,6.074162990592507
Ti1 Al1 F5,3.178800539900384
Ti1 Al1 Fe1 Co1,6.4231421299543
Ti1 Al1 Fe2,6.253070235758453
Ti1 Al1 Ir2,1.0400007972957743
Ti1 Al1 N2,4.704415908878348
Ti1 Al1 Ni2,6.186787623390888
Ti1 Al1 Ni6,7.675119271718492
Ti1 Al1 O3,3.5446998346849
Ti1 Al1 Os2,13.175580843962887
Ti1 Al1 Pd2,7.796983910532551
Ti1 Al1 Pt1,9.656845225835264
Ti1 Al1 Rh2,8.099626956789237
Ti1 Al1 Ru2,8.111431976298766
Ti1 Al1 Tc2,0.5836789125604519
Ti1 Al1 V1 C1,4.391055008578444
Ti1 Al1 V2,4.92511591655366
Ti1 Al2,3.534126300917523
Ti1 Al2 Cr3 C2,4.994100188680455
Ti1 Al2 V1,4.15474648395369
Ti1 Al2 Zn1,4.523645314265417
Ti1 Al3,3.2832972890016467
Ti1 Al6 Mo1,4.125863997959796
Ti1 As1,5.724083761396221
Ti1 As1 Pd1,7.926304377546187
Ti1 As1 Rh1,7.076408856722197
Ti1 As3,6.1388028069533656
Ti1 Au1,11.532356578173063
Ti1 Au1 Br1,8.203597622585692
Ti1 Au1 Cl1,7.862486225649557
Ti1 Au2,2.176342083507637
Ti1 Au3,15.183083057980024
Ti1 Au4,15.866690914933535
Ti1 B1,3.189470128017292
Ti1 B1 C1,4.794955214296783
Ti1 B2,4.48742516327231
Ti1 B2 Mo1,6.617403257746276
Ti1 B2 W1,10.15544448182314
Ti1 B4 Mo1,5.964642160254201
Ti1 Be1,3.752193567343008
Ti1 Be1 Au2,1.0007243044618548
Ti1 Be1 B1,3.8426057174775066
Ti1 Be1 Co2,6.639927979731838
Ti1 Be1 Cu2,0.6070502072424695
Ti1 Be1 Ir2,13.864523598331836
Ti1 Be1 Ni2,0.4790021381238105
Ti1 Be1 O3,4.474596770357307
Ti1 Be1 Pt2,1.016303541347734
Ti1 Be1 Rh2,8.366097827417509
Ti1 Be2,3.293295583039766
Ti1 Be2 Ir1,9.349643674601417
Ti1 Be2 Pd1,0.4715086826128132
Ti1 Be2 Pt1,0.7796502320394769
Ti1 Be2 Rh1,0.5148867127535731
Ti1 Be4 Nb1,4.334014699540469
Ti1 Bi1 Rh1,9.336247918040314
Ti1 Bi2 O4 F2,8.042325109413184
Ti1 Bi2 O6,6.634103654448354
Ti1 Br1 N1,3.93958903110144
Ti1 Br1 O1,4.141585310924563
Ti1 Br2,4.60203699739724
Ti1 Br3,3.824505501861757
Ti1 C1,4.879907058924726
Ti1 C2,3.92381925948117
Ti1 C3,2.792302264486778
Ti1 Cd1,6.897648281327489
Ti1 Cd1 Au2,0.7271517444845501
Ti1 Cd1 Cu2,0.6464325571474526
Ti1 Cd1 F6,3.787837003226908
Ti1 Cd1 Hg2,11.259125401863717
Ti1 Cd1 O3,5.035445983533509
Ti1 Cd1 Pd2,0.5190632484374981
Ti1 Cd1 Rh2,0.7353452879588165
Ti1 Cd3,7.943174167595693
Ti1 Cl1 O1,3.092474823149675
Ti1 Cl2,2.682312796069225
Ti1 Cl3,2.277426163613588
Ti1 Co1,6.714495321842168
Ti1 Co1 As1,6.070503399676482
Ti1 Co1 Ge1,7.19085708594786
Ti1 Co1 N2,6.319747258714786
Ti1 Co1 Ni1 Sn1,8.330749946904094
Ti1 Co1 Sb1,7.41611676208167
Ti1 Co1 Si1,5.759345733537104
Ti1 Co1 Sn1,6.521182026052564
Ti1 Co2,7.522615688682077
Ti1 Co2 Ge1,7.926603899721122
Ti1 Co2 O6,4.2288216859590815
Ti1 Co2 Si1,6.161116972307492
Ti1 Co2 Sn1,8.279405734658162
Ti1 Co3,7.914043955498883
Ti1 Cr1,5.950590781837652
Ti1 Cr1 Ag1,6.057430500513261
Ti1 Cr1 Ag1 S4,4.12102387488546
Ti1 Cr1 As1,6.875323844462377
Ti1 Cr1 As2,6.0873772811835964
Ti1 Cr1 B4,4.918663831452296
Ti1 Cr1 Cu1 S4,4.146536495949412
Ti1 Cr1 Mo2,0.5356816551792831
Ti1 Cr1 N2,5.748705744615164
Ti1 Cr1 O4,3.965585977114388
Ti1 Cr1 P1,5.652777370382305
Ti1 Cr1 P2,4.526682703246791
Ti1 Cr1 Re2,1.0266107918175895
Ti1 Cr1 S2,4.482065069763771
Ti1 Cr1 Tc2,0.6492356486218054
Ti1 Cr2,6.2374105641628494
Ti1 Cr2 Re1,0.7709988309272258
Ti1 Cr2 S4,3.919922875692072
Ti1 Cr2 Se4,5.510134622602132
Ti1 Cr2 Si6,4.662470380336654
Ti1 Cr2 Te4,6.278853819616451
Ti1 Cr3 Te4,6.518465785362266
Ti1 Cu1,6.349504154176052
Ti1 Cu1 Au2,1.0490640602104315
Ti1 Cu1 B1,5.653091676006329
Ti1 Cu1 F6,3.4876457985807687
Ti1 Cu1 Ge1,6.897654854188298
Ti1 Cu1 Ge1 As1,6.985470544556982
Ti1 Cu1 Hg2,11.852244298378745
Ti1 Cu1 Ni1,7.255741496925072
Ti1 Cu1 Ni2,7.738100878311925
Ti1 Cu1 O3,4.349127551713586
Ti1 Cu1 Rh2,0.7684738097771061
Ti1 Cu1 Si1 As1,6.047241782079253
Ti1 Cu1 Sn1,7.488611224730357
Ti1 Cu2,7.223899069247439
Ti1 Cu2 Au1,1.5472669919693982
Ti1 Cu2 N3,5.276438523584113
Ti1 Cu2 Ni1 O4,5.4285711548477
Ti1 Cu2 Sb1,7.669608681712485
Ti1 Cu2 Sn1,7.507703692517371
Ti1 Cu3,7.648117874888363
Ti1 Cu3 O4,0.4290890842130219
Ti1 Cu4 S4,4.546920006726615
Ti1 F2,4.072181500448822
Ti1 F3,2.3263372181163007
Ti1 Fe1,6.459553650294976
Ti1 Fe1 As1,7.119787533101397
Ti1 Fe1 Co1 As1,7.925932958519092
Ti1 Fe1 Co1 Ge1,7.949759982792211
Ti1 Fe1 Co1 Sb1,8.408648133479563
Ti1 Fe1 Co1 Si1,6.753704224267911
Ti1 Fe1 Co2,0.7516842903767169
Ti1 Fe1 H1,6.138142719391107
Ti1 Fe1 H2,4.867746702071557
Ti1 Fe1 N2,6.253707319483878
Ti1 Fe1 P1,6.07429265149515
Ti1 Fe1 Sb1,7.055233463721868
Ti1 Fe1 Se1,6.838010756002084
Ti1 Fe1 Sn1,6.125187876997394
Ti1 Fe1 Te1,7.5443166702660704
Ti1 Fe2 As1,8.015434905811812
Ti1 Fe2 Ge1,7.947002717327334
Ti1 Fe2 Sb1,8.456761436812515
Ti1 Fe2 Se4,5.451662378906306
Ti1 Fe2 Si1,6.758127762095237
Ti1 Fe2 Sn1,8.367357889130307
Ti1 Fe3 N1,7.293451067411127
Ti1 Fe4,7.493256495607756
Ti1 Ga1,6.197682761254916
Ti1 Ga1 Au2,0.9865460861311172
Ti1 Ga1 Co2,7.864805558541562
Ti1 Ga1 Cu1,6.86229554041855
Ti1 Ga1 Cu2,0.6169141475927704
Ti1 Ga1 Fe1 Co1,7.852732484862467
Ti1 Ga1 Fe2,7.798866127311298
Ti1 Ga1 Ir2,14.131652717461083
Ti1 Ga1 Ni1,6.991897429966724
Ti1 Ga1 Ni2,7.652008896788383
Ti1 Ga1 Ni6,8.498689269493006
Ti1 Ga1 Pd1,8.021989117761787
Ti1 Ga1 Pd2,8.94388324055221
Ti1 Ga1 Pt1,11.147470291916065
Ti1 Ga1 Rh1,7.093490012405063
Ti1 Ga1 Rh2,9.278021313391015
Ti1 Ga1 Ru2,9.306974001125749
Ti1 Ga1 Tc2,0.6734441475272012
Ti1 Ga3,6.6842917921890725
Ti1 Ga5 Co1,6.940854221434791
Ti1 Ga5 Ni1,6.859747280618505
Ti1 Ge1 Os2,1.1611247759166858
Ti1 Ge1 Pd1,7.899613743728243
Ti1 Ge1 Pt1,9.579004368891948
Ti1 Ge1 Rh2,0.8066219160420046
Ti1 Ge1 Ru2,9.276389350618215
Ti1 Ge1 Sb1,7.016602231845369
Ti1 Ge2,6.553899874919122
Ti1 H1,4.064387354244768
Ti1 H2,3.3918202040501644
Ti1 Hg1,10.84609390029329
Ti1 Hg1 O3,8.164206384227668
Ti1 Hg3 O3,2.546434716682208
Ti1 I1,5.691931938743672
Ti1 I1 N1,4.637499402754485
Ti1 I2,5.095647984547276
Ti1 I3,4.268602662494735
Ti1 In1,7.009142775572959
Ti1 In1 Au2,12.436933212335688
Ti1 In1 Co2,8.593805564070454
Ti1 In1 Cu2,7.637135567175419
Ti1 In1 Fe2,8.086538994774328
Ti1 In1 Ni2,7.92767722214995
Ti1 In1 Pd2,9.042188713518131
Ti1 In1 Pt2,13.202121595844222
Ti1 In1 Rh2,9.56985621534108
Ti1 Ir1,13.105847695004895
Ti1 Ir3,17.774770992323113
Ti1 Mn1 As1,6.228797705896994
Ti1 Mn1 Co2,7.350147653148816
Ti1 Mn1 Ir2,1.1360251833599793
Ti1 Mn1 N2,5.818310065867058
Ti1 Mn1 Ni4 Sn2,8.487151903426145
Ti1 Mn1 P1,5.924225310004536
Ti1 Mn1 Rh2,8.764975409043215
Ti1 Mn1 Sb1,7.304356556744632
Ti1 Mn1 V1,6.286328944401234
Ti1 Mn1 V2,6.317143682689321
Ti1 Mn2 Al1,5.79434850336243
Ti1 Mn2 Cr1,0.4670918592188164
Ti1 Mn2 Ga1,6.573741229199824
Ti1 Mn2 Ge1,7.55797656308807
Ti1 Mn2 Mo1,0.6752382393549604
Ti1 Mn2 Nb1,0.6178843076692356
Ti1 Mn2 O6,3.930600351087177
Ti1 Mn2 Re1,0.7989380232823368
Ti1 Mn2 Si1,6.35231333270128
Ti1 Mn2 V1,6.93063331004292
Ti1 Mn2 V1 As4,6.295308678936555
Ti1 Mn2 W1,10.694687039937566
Ti1 Mo1,6.858149713755793
Ti1 Mo1 As2,7.237407335821645
Ti1 Mo1 C2,6.777735281860127
Ti1 Mo1 O4,5.0225282938094775
Ti1 Mo1 P2,5.7646807689256025
Ti1 Mo1 W2,1.117449796869983
Ti1 Mo2,8.249541766606878
Ti1 Mo2 S4,5.228463324556091
Ti1 Mo2 W1,1.0467621942395222
Ti1 Mo3,8.788249859161297
Ti1 N1,4.21555473669145
Ti1 N1 Cl1,2.960848314364915
Ti1 N1 F1,0.0201437171989427
Ti1 N2,5.007427939726197
Ti1 N2 Cl6,2.1190051248863195
Ti1 Nb1,6.618459515539193
Ti1 Nb1 Al1 C1,5.17474816636287
Ti1 Nb1 B2,6.062525375045225
Ti1 Nb1 B4,5.692236779174746
Ti1 Nb1 C2,6.307478694966274
Ti1 Nb1 Cr4,7.031469819246103
Ti1 Nb1 N2,6.721755379611353
Ti1 Nb1 O4,4.41673825127051
Ti1 Nb1 Os2,1.1685404406052222
Ti1 Nb1 Re2,13.37431853055056
Ti1 Nb1 Ru2,9.202659920363926
Ti1 Nb1 S4,3.656197637352733
Ti1 Nb1 Tc2,8.90870161423132
Ti1 Nb1 W2,0.9630107247599548
Ti1 Nb2 Mo1,0.6446932427517881
Ti1 Nb2 Re1,0.58136639779202
Ti1 Nb2 Se4,6.4455138396313165
Ti1 Nb2 W1,0.8797907959761264
Ti1 Nb3 Al2 C2,5.756306113769304
Ti1 Ni1,6.354886679184636
Ti1 Ni1 Ge1,5.978355878203899
Ti1 Ni1 H1,5.869137415837376
Ti1 Ni1 O6,3.2632399104944003
Ti1 Ni1 Sb1,6.442235608528763
Ti1 Ni1 Sn1,6.416955789816474
Ti1 Ni2 Sb1,8.32077338696268
Ti1 Ni2 Sn1,7.905825683309576
Ti1 Ni4,7.901653972141555
Ti1 O1,4.661596912023334
Ti1 O1 F1,3.431372776272584
Ti1 O1 F2,2.935439226414654
Ti1 O2,1.401379572198959
Ti1 Os1,13.333767140704715
Ti1 Os3,17.47991012707147
Ti1 P1,3.462618394316286
Ti1 P1 N3,3.0871066875569184
Ti1 P1 Os1,10.628452887729775
Ti1 P1 Ru1,7.173677561144605
Ti1 P2 W1,8.221307876647643
Ti1 P3,4.013226051275455
Ti1 P4 W3,10.105108805727262
Ti1 Pb1 O3,7.29511216565533
Ti1 Pb3,10.28860315701188
Ti1 Pd1,7.998692458225682
Ti1 Pd2,9.19906331630428
Ti1 Pd3,10.028182861234288
Ti1 Pt1,12.553684487411036
Ti1 Pt1 Pb1,11.56202379237862
Ti1 Pt3,17.033080437507305
Ti1 Pt8,19.082725895430062
Ti1 Re1,12.813423506748478
Ti1 Re1 Mo2,0.958725255907938
Ti1 Re1 Si1,9.976225995980272
Ti1 Re1 Tc2,11.967737840573426
Ti1 Re1 W2,1.285829335216821
Ti1 Re2 Mo1,0.8377964691277149
Ti1 Re2 W1,16.2597987409657
Ti1 Rh1,8.281568425450502
Ti1 Rh3,10.282251916495603
Ti1 Ru1,8.41943735464939
Ti1 Ru3,10.139813893026869
Ti1 S1,0.020562228328728
Ti1 S1 Cl1,3.041376562767094
Ti1 S2,1.6281554894906718
Ti1 S2 N1,2.36591194269966
Ti1 S3,1.8928220970873024
Ti1 Sb1,6.299308442240312
Ti1 Sb1 Rh1,7.516377197387062
Ti1 Sb1 Ru1,7.695082239827712
Ti1 Sb2,7.3764194084273
Ti1 Sb3,7.160859636759457
Ti1 Sb4 Mo1,7.817589621322976
Ti1 Se1,4.031414397106929
Ti1 Se1 S1,3.8787682845045386
Ti1 Se2,4.69257943971707
Ti1 Si1,4.224308740491082
Ti1 Si1 Os2,13.727474522947364
Ti1 Si1 Pd1,5.951367128283562
Ti1 Si1 Pt1,8.767714392293598
Ti1 Si1 Ru2,8.52260419075661
Ti1 Si1 Tc2,8.054004965722193
Ti1 Si2,3.4756776602367774
Ti1 Si6 Mo2,5.483070334022959
Ti1 Sn1 Ir1,9.940060562457983
Ti1 Sn1 O3,5.778248869345959
Ti1 Sn1 O4,4.87947087058393
Ti1 Sn1 Pd1,7.55432308687847
Ti1 Sn1 Pd2,9.287622809019558
Ti1 Sn1 Pt1,9.925802909312868
Ti1 Sn1 Rh1,7.422161994710276
Ti1 Sn1 Rh2,9.592849175255797
Ti1 Sn1 Ru2,9.777328078368583
Ti1 Sn3,7.138138316455424
Ti1 Tc1,8.076825091014111
Ti1 Tc2 Ge1,0.7064393623996198
Ti1 Tc2 Mo1,9.323271803222132
Ti1 Tc2 Sb1,9.516408431922637
Ti1 Tc2 Sn1,0.7288671804513044
Ti1 Tc2 W1,11.693560810287217
Ti1 Te1,6.6813161592932815
Ti1 Te1 As1,6.769605838190236
Ti1 Te1 O3,5.964321374667137
Ti1 Te1 Os1,10.340592685015348
Ti1 Te1 Ru1,7.939136261432786
Ti1 Te1 S1,4.679793649020168
Ti1 Te1 Se1,5.532920278818756
Ti1 Te2,5.967718226177564
Ti1 Tl2 F6,6.057885964760942
Ti1 Tl2 W1,13.574854742155702
Ti1 Tl3,11.27285950813114
Ti1 V1,5.387500532093173
Ti1 V1 As2,6.143855462463206
Ti1 V1 B4,4.800723110416965
Ti1 V1 C1 N1,5.522575711265708
Ti1 V1 C2,5.337145941829848
Ti1 V1 Fe2,0.2404437788087529
Ti1 V1 H4,4.230707604287519
Ti1 V1 Mo2,0.6961131911739857
Ti1 V1 N2,5.738315830743964
Ti1 V1 Os2,1.1098371243593812
Ti1 V1 Re2,13.4035637922354
Ti1 V1 Ru2,0.7541128794743003
Ti1 V1 S2,4.669734593474574
Ti1 V1 Se4,5.1441905198687365
Ti1 V1 Tc2,8.499065490064433
Ti1 V1 W1,8.631466059267707
Ti1 V1 W2,1.0675447155173683
Ti1 V2 Mo1,0.4817924961919868
Ti1 V2 Os1,0.7852639666088574
Ti1 V2 Re1,0.6681903976303708
Ti1 V2 Te4,6.466625942200444
Ti1 V2 W1,0.8187134580235682
Ti1 W1,11.855525692968548
Ti1 W1 C2,10.298686888476032
Ti1 Zn1,6.036542638069623
Ti1 Zn1 Au2,12.572719029623071
Ti1 Zn1 Co2,7.796196299292522
Ti1 Zn1 Cu2,7.283254932837376
Ti1 Zn1 F4,4.575404892508414
Ti1 Zn1 F6,3.3618117432423773
Ti1 Zn1 Ga2,6.853706395189614
Ti1 Zn1 Hg2,11.286543760914626
Ti1 Zn1 Ir2,14.313777472598122
Ti1 Zn1 Ni2,7.496638804641476
Ti1 Zn1 O3,4.71816371378167
Ti1 Zn1 Pd2,8.930710107630333
Ti1 Zn1 Pt2,13.614159302130576
Ti1 Zn1 Rh2,9.271396477069043
Ti1 Zn2 Pd1,0.5640495568293918
Ti1 Zn2 Pt1,0.745218125560468
Ti1 Zn3,6.697660442193527
Ti2 Ag1,6.468902695669716
Ti2 Ag1 Mo1,0.5696108536329587
Ti2 Al1,3.244296730671884
Ti2 Al1 C1,3.993101063259904
Ti2 Al1 Co1,5.223365140309928
Ti2 Al1 Cr1,4.639004765655271
Ti2 Al1 Cu1,4.93049650821584
Ti2 Al1 Fe1,5.16108470173437
Ti2 Al1 Ge3,5.873817326964107
Ti2 Al1 Mo1,5.652812353712737
Ti2 Al1 N1,4.264332478435478
Ti2 Al1 Ni1,4.998650856059824
Ti2 Al1 Re1,8.24757100401431
Ti2 Al1 Si3,3.878026103003318
Ti2 Al1 Tc1,5.89356603854033
Ti2 Al1 V1,4.532630930595522
Ti2 Al1 W1,0.4836900661743211
Ti2 Al1 Zn1,4.74217095172951
Ti2 As1 P1,5.050465971967691
Ti2 As4 W3,10.070602608983714
Ti2 B1,4.578122083555732
Ti2 B1 Rh6,9.69818043943327
Ti2 Be1 Mo1,0.4250076707849961
Ti2 Be1 Re1,0.4313743752479633
Ti2 Be1 Tc1,0.3277467020012302
Ti2 Be1 Zn1,0.3349789156063083
Ti2 Be3 Ga1,4.39335398871777
Ti2 Bi1,7.998026573473239
Ti2 C1,4.508279981159427
Ti2 C1 N1,5.103872955607892
Ti2 C1 S1,4.634878183074557
Ti2 Cd1,6.215938242957545
Ti2 Cd1 C1,6.02072649069647
Ti2 Cd1 O6,4.599675935780693
Ti2 Co1,5.78563250353905
Ti2 Co1 Ge1,6.62284728080925
Ti2 Co1 Ir1,10.03092135906687
Ti2 Co1 Mo1,0.5607037150506322
Ti2 Co1 Ni1,6.62851239520033
Ti2 Co1 Ni1 Sn2,6.486430557913993
Ti2 Co1 Os1,0.8217226857111554
Ti2 Co1 Re1,9.912983757436496
Ti2 Co1 Rh1,0.7926349957587657
Ti2 Co1 Ru1,0.7579595972636911
Ti2 Co1 S4,4.277488948393651
Ti2 Co1 Se4,6.045047833835143
Ti2 Co1 Si1,5.538625732766032
Ti2 Co1 Tc1,7.50874758816154
Ti2 Co3 Ge1,6.7410865377873375
Ti2 Co3 Sn2,7.858763440132481
Ti2 Cr1 Co1,0.4453459951384875
Ti2 Cr1 Ir1,9.760395797922325
Ti2 Cr1 N3,5.475219046140725
Ti2 Cr1 Rh1,0.5897519766120537
Ti2 Cr1 Se4,5.640741960840765
Ti2 Cr1 Si6,4.347239276581111
Ti2 Cr1 Te4,6.317571476861441
Ti2 Cu1,5.722180362838134
Ti2 Cu1 Ir1,0.7959584120219254
Ti2 Cu1 Ni1,6.456789783270077
Ti2 Cu1 Os1,0.7862585042518809
Ti2 Cu1 Re1,0.7448710597428033
Ti2 Cu1 Rh1,0.7220424230143007
Ti2 Cu1 S4,4.003119161049686
Ti2 Cu1 Sb3,7.260230170344859
Ti2 Cu1 Tc1,7.244299155730382
Ti2 Cu3,6.870863870956951
Ti2 Fe1 Co1,0.4235728484114848
Ti2 Fe1 Cu1,6.5129871812013
Ti2 Fe1 Ir1,9.950049224406712
Ti2 Fe1 Mo1,0.5307038413068176
Ti2 Fe1 Ni1 Sb2,7.221651617365096
Ti2 Fe1 Os1,0.7989313561855181
Ti2 Fe1 Re1,0.9111755378495324
Ti2 Fe1 Rh1,0.6556604262039548
Ti2 Fe1 Ru1,0.3717294658414613
Ti2 Fe1 S4,4.081650209815777
Ti2 Fe1 Se4,5.793933590242222
Ti2 Fe1 Si1,5.514770381912436
Ti2 Fe1 Tc1,7.401170694449369
Ti2 Fe2 H3,5.916771862446844
Ti2 Ga1,4.542772422077731
Ti2 Ga1 C1,5.332772629970927
Ti2 Ga1 Co1,6.4937174293707365
Ti2 Ga1 Cu1,0.4692674157654253
Ti2 Ga1 Fe1,6.438496547621338
Ti2 Ga1 Mo1,0.6296869567685618
Ti2 Ga1 N1,5.682010932452364
Ti2 Ga1 Ni1,6.375035159544758
Ti2 Ga1 Re1,0.7075300609893691
Ti2 Ga1 Tc1,0.5465504685815642
Ti2 Ga1 W1,0.7404817857389677
Ti2 Ge1,4.672360518373676
Ti2 Ge1 C1,5.564792021987908
Ti2 H1,4.2238396562509735
Ti2 H1 C1,4.496019481868735
Ti2 H1 Pd1,6.7451738081895245
Ti2 H2 O3,3.322204763532206
Ti2 H2 Pd1,6.619043198113908
Ti2 H4 Pd1,5.997988288928956
Ti2 In1,5.068743064356503
Ti2 In1 C1,6.06319055995977
Ti2 In1 Co1,6.796545121111072
Ti2 In1 Fe1,6.813621680039696
Ti2 In1 N1,6.3713483485827975
Ti2 In1 Ni1,6.740051227842431
Ti2 Ir1 Os1,1.1214865359722004
Ti2 Ir1 Pd1,0.8484854587304355
Ti2 Ir1 Rh1,10.708011176627062
Ti2 Ir1 Ru1,0.9337969286366268
Ti2 Ir1 W1,12.739209022844726
Ti2 Mn1 Al1,4.8388871956714095
Ti2 Mn1 Be1,5.074746067402057
Ti2 Mn1 Co1,6.649511889613007
Ti2 Mn1 Cu1,0.5025199175328277
Ti2 Mn1 Fe1,6.54953662772013
Ti2 Mn1 Ga1,0.2656130371093724
Ti2 Mn1 Ge1,6.587640041524861
Ti2 Mn1 In1,6.892122503020245
Ti2 Mn1 Ir1,10.073590629471024
Ti2 Mn1 Mo1,0.4962071839820986
Ti2 Mn1 Ni1,6.578268698453302
Ti2 Mn1 Os1,10.009062805109894
Ti2 Mn1 Pt1,0.7789793760138065
Ti2 Mn1 Re1,9.754199780726733
Ti2 Mn1 Rh1,7.47917250930123
Ti2 Mn1 Ru1,7.45842308938283
Ti2 Mn1 Si1,5.425819378430244
Ti2 Mn1 Sn1,6.8011412744112265
Ti2 Mn1 Tc1,0.5437385571140552
Ti2 Mn1 Zn1,0.4500152846638547
Ti2 Mo1 Au1,0.7795539213776785
Ti2 Mo1 Ir1,10.429708077214238
Ti2 Mo1 Os1,0.8721022788125488
Ti2 Mo1 Pd1,0.6722500714814618
Ti2 Mo1 Pt1,10.2981478219305
Ti2 Mo1 Rh1,0.6469537087964704
Ti2 Mo1 Ru1,0.6741640071759089
Ti2 Mo1 W1,0.807074803191562
Ti2 N1,4.762650662323733
Ti2 Nb1 Al1,0.4646804315680439
Ti2 Nb1 Ir1,0.833832670924962
Ti2 Nb1 Mo1,0.3490516145832397
Ti2 Nb1 Pb1,0.797952066484032
Ti2 Nb1 Pt1,0.800417781890706
Ti2 Nb1 Rh1,0.5695370520393336
Ti2 Nb1 Sn1,0.5703591449548521
Ti2 Nb1 Zn1,0.3371154652231277
Ti2 Ni1 Ir1,10.01044684863432
Ti2 Ni1 Mo1,7.11210163064865
Ti2 Ni1 Os1,0.767789616741715
Ti2 Ni1 Pd1,7.340398690106398
Ti2 Ni1 S4,4.152401953645413
Ti2 Ni1 Se4,5.934784931918615
Ti2 Ni1 W1,0.7984101743373521
Ti2 O1,4.904790809551801
Ti2 Os1 Rh1,0.906189989285191
Ti2 Os1 Ru1,10.875791901248336
Ti2 P1,4.737914199305812
Ti2 Pb1 C1,8.250785478914805
Ti2 Pd1,6.905202241177124
Ti2 Pt1 W1,1.0216288154642843
Ti2 Re1,9.8674381020313
Ti2 Re1 Ir1,13.06534769533194
Ti2 Re1 Mo1,0.863518611841203
Ti2 Re1 Ni1,9.791111142955184
Ti2 Re1 Os1,13.062415962650268
Ti2 Re1 Pd1,10.429398330465762
Ti2 Re1 Pt1,12.748602694041193
Ti2 Re1 Rh1,10.604352956601444
Ti2 Re1 Ru1,10.6434725035181
Ti2 Re1 Tc1,10.418106935373777
Ti2 Rh1,7.088660567074917
Ti2 Ru1 Rh1,0.7567487966889161
Ti2 S1 N2,4.213538295170032
Ti2 Sb1,6.310595098941092
Ti2 Sb1 P1,5.683966350369974
Ti2 Se1 N2,5.150904958730651
Ti2 Si1,3.5456351558520547
Ti2 Si1 C1,4.339723344325605
Ti2 Si2 O5,4.62313156636621
Ti2 Si6 Mo1,4.764735200076859
Ti2 Si6 W1,5.9151163030163625
Ti2 Sn1,5.184208862344369
Ti2 Sn1 C1,6.244640856710579
Ti2 Sn1 Mo1,0.6006242687623344
Ti2 Tc1 Ir1,10.735713968379471
Ti2 Tc1 Mo1,0.6547262882544465
Ti2 Tc1 Ni1,7.393033012387509
Ti2 Tc1 Os1,10.690396340806368
Ti2 Tc1 Pd1,8.111005235213087
Ti2 Tc1 Pt1,10.533933100525608
Ti2 Tc1 Rh1,8.248625468028864
Ti2 Tc1 Ru1,8.257824617482472
Ti2 Te2 P1,5.513174213539204
Ti2 Tl1 C1,8.318848487893062
Ti2 V1 Ir1,9.353107050040885
Ti2 V1 Mo1,0.5728995260549873
Ti2 V1 Os1,0.8471338323331196
Ti2 V1 Re1,0.6871656844446256
Ti2 V1 Rh1,0.6196852889627426
Ti2 V1 S4,3.8988300814618073
Ti2 V1 Se4,5.597723895866404
Ti2 V1 Tc1,0.3576737057641114
Ti2 V1 Te4,6.397555409165331
Ti2 Zn1,5.4624419306317655
Ti2 Zn1 Ir1,0.702605268363991
Ti2 Zn1 Mo1,0.5217622137865755
Ti2 Zn1 N1,5.650048202568829
Ti2 Zn1 N2,4.177285174946571
Ti2 Zn1 Os1,0.7454139979015001
Ti2 Zn1 Re1,9.382320287930964
Ti2 Zn1 Rh1,0.5105493034034988
Ti2 Zn1 Tc1,7.030689542817842
Ti2 Zn1 W1,0.6796125929567969
Ti3 Ag1,6.064032077326992
Ti3 Al1,4.1363400573869775
Ti3 Al1 C1,4.148160779582289
Ti3 Al1 N1,4.351485082740092
Ti3 Al5,3.5954387219674744
Ti3 As1,5.730681815893709
Ti3 As2 P1 Os3,11.35519356158919
Ti3 Au1,8.354151399886444
Ti3 B4,4.557547556692419
Ti3 B4 Mo1,5.573087323385268
Ti3 Be1,4.233875223575477
Ti3 Bi1,7.774606397198863
Ti3 Br1,5.392616805762475
Ti3 C1,5.072390625381024
Ti3 Cd1,5.943583862472373
Ti3 Cu1,5.50544461084138
Ti3 Cu1 Sn1,5.562152153758446
Ti3 Cu4,6.748300443620875
Ti3 Fe1,5.288070666843926
Ti3 Ga1,4.977464025295357
Ti3 Ge1,5.60124699384399
Ti3 Hg1,8.054964566322905
Ti3 In1,5.857525155916934
Ti3 In1 C1,5.857246844763975
Ti3 In1 N1,6.099078499833642
Ti3 In3 Rh2,7.992633609690073
Ti3 Ir1,8.833384056802805
Ti3 Mo1 As4,6.4733714240343545
Ti3 N1,4.964112153023645
Ti3 N4,4.553772120171544
Ti3 Nb1,5.552612738932129
Ti3 Nb1 Al2,4.7991039479238
Ti3 Nb1 Al2 C2,4.6221580178535255
Ti3 Nb3 Sn2,7.376405032459165
Ti3 Ni1,5.512401047322958
Ti3 O1,4.741277982385064
Ti3 O4,4.712897151868964
Ti3 Os1,8.810681744826796
Ti3 P1 O2,4.905546828851908
Ti3 Pb1,7.797412010068168
Ti3 Pd1,6.400084291337905
Ti3 Pd5,8.710548936135572
Ti3 Pt1,8.766699056128099
Ti3 S2,4.178284977229527
Ti3 S4,0.5101071318475348
Ti3 Sb1,6.204950256483492
Ti3 Se1,5.255215687608301
Ti3 Se2 S4,3.714875577514962
Ti3 Se4,5.507177726761826
Ti3 Si1,4.5701628172419575
Ti3 Sn1,6.019282977299691
Ti3 Sn1 H1,5.997228997205864
Ti3 Te1,6.373397205414277
Ti3 Te2 Se2,5.969617856068154
Ti3 Te4,6.386267658048584
Ti3 Tl1,7.840057831234498
Ti3 Tl1 C1,7.729422343045955
Ti3 Tl1 N1,8.032508960953571
Ti3 V1 S4,4.6100145334574885
Ti3 W1 C3 N1,7.682836068483018
Ti3 W1 C4,7.598937841062146
Ti3 Zn1,5.320210512909021
Ti3 Zn1 Hg4,11.033512568472233
Ti4 Al2 C1 N1,4.134908916193688
Ti4 B2 N3,4.2090767492583865
Ti4 C1 N3,5.214160394027449
Ti4 C3 N1,4.985022397074638
Ti4 Cr1,5.057300629271114
Ti4 Cu1 Ag1,6.12503602252768
Ti4 Fe1,5.179001462881053
Ti4 Fe2 P3,5.575322293282768
Ti4 Ga1 Co2 Si1,6.016750888277889
Ti4 Ga3 Ni2,6.562051156872911
Ti4 H3,4.097518908717332
Ti4 H3 Pd2,6.548612813103512
Ti4 H5,3.9762331801721738