Composition,Density
Mg1 Hg1 Pd2,10.538271679057411
Mg1 Hg2,10.074451538370871
Mg1 Hg3,10.255282028775238
Mg1 Hg5,10.887057704006876
Mg1 I2,3.892507476334497
Mg1 I2 O6,4.47507638450915
Mg1 I3,3.243292837842953
Mg1 In1,4.812542458042048
Mg1 In1 Ag2,7.566064486533992
Mg1 In1 Au2,0.8995673641836298
Mg1 In1 Cu2,0.6095564739979268
Mg1 In1 Cu4,7.409327159327277
Mg1 In1 Ga1 O4,5.360465337541159
Mg1 In1 Hg2,0.6944248110651797
Mg1 In1 Ir2,13.401547945082804
Mg1 In1 Ni2,7.2216937360278814
Mg1 In1 O3,5.304360757056847
Mg1 In1 Pd2,8.527944871298093
Mg1 In1 Pt2,0.9966206757529048
Mg1 In1 Rh2,8.879654590436738
Mg1 In2,5.169556799057972
Mg1 In2 N2,6.233948738374493
Mg1 In2 Se4,4.787352922469762
Mg1 In2 Te4,4.907521683330713
Mg1 In3,5.910287903372218
Mg1 In5,6.123578629710874
Mg1 Ir1,11.827128157304784
Mg1 Ir1 N2,7.877223052324243
Mg1 Ir1 O3,7.284422688581256
Mg1 Mn1,3.830390645242666
Mg1 Mn1 F6,3.065016482557112
Mg1 Mn1 Ge1,5.056271995545813
Mg1 Mn1 Ir2,0.9320862384009312
Mg1 Mn1 N2,3.896555012732665
Mg1 Mn1 Ni2 Sb2,6.237531585818795
Mg1 Mn1 O2,4.273260523084813
Mg1 Mn1 O3,4.05295230583769
Mg1 Mn1 Pd2,0.5684458131371376
Mg1 Mn1 Pt2,12.607001914116587
Mg1 Mn1 Rh2,8.140581695913577
Mg1 Mn1 Te2,4.1788976056156
Mg1 Mn2 N2,4.041112662692771
Mg1 Mn3 Te4,4.398624908300679
Mg1 Mo1 F6,3.29714599722238
Mg1 Mo1 N2,6.2260430881782085
Mg1 Mo1 O3,4.357174622302637
Mg1 Mo1 Ru2,0.6234209904816224
Mg1 Mo3,7.994333539124788
Mg1 N6 Cl2,2.087783671863308
Mg1 N8,1.3127070238378564
Mg1 Nb1 Co2,0.6873874209518955
Mg1 Nb1 Ir2,1.0102047246465444
Mg1 Nb1 Os2,0.9833946062684068
Mg1 Nb1 Rh2,8.509189855489728
Mg1 Nb1 Ru2,8.547752545381146
Mg1 Nb2,6.053108771643182
Mg1 Nb3,6.726754472900157
Mg1 Ni1,4.744470186034028
Mg1 Ni1 Bi1,7.832719996998301
Mg1 Ni1 F6,3.538793283269826
Mg1 Ni1 H1,4.491099842978589
Mg1 Ni1 H2,4.157359620397132
Mg1 Ni1 H3,3.873370213544492
Mg1 Ni1 O2,5.039671333903162
Mg1 Ni1 Sb1,6.040044869261214
Mg1 Ni2,5.962033094683992
Mg1 Ni2 Sb1,7.457107510051682
Mg1 Ni2 Sn1,7.384300812736397
Mg1 Ni3,6.818969428703954
Mg1 Ni3 B1,6.086498227777272
Mg1 Ni3 C1,6.376007671789427
Mg1 Ni5,7.575984270613196
Mg1 O1,2.7257994573378665
Mg1 O2,2.5204167140770166
Mg1 Os1,11.13426123056144
Mg1 Os1 O3,7.25514550317498
Mg1 Os2 W1,1.1763868195956182
Mg1 Os3,16.812984006838988
Mg1 P1,2.339637646742672
Mg1 P1 Pd5,8.956963533962673
Mg1 P1 Pt5,15.658378025023742
Mg1 Pb1,7.196452500329756
Mg1 Pb1 F6,4.906534702610934
Mg1 Pb1 O3,7.359026699548187
Mg1 Pb2,8.3455345435354
Mg1 Pb2 N2,8.424414379625293
Mg1 Pb3,8.980675593892068
Mg1 Pb5,9.594732477698123
Mg1 Pd1,6.693303426320804
Mg1 Pd1 Au2,12.579093769159304
Mg1 Pd1 F6,3.940071452622389
Mg1 Pd2 Au1,0.8370800830395856
Mg1 Pd2 Pb1,0.7309593279109844
Mg1 Pd3,9.048264061126009
Mg1 Pd5,9.831224295365228
Mg1 Pt1,11.033470747228266
Mg1 Pt2,14.360223418759276
Mg1 Pt3,16.213685529901646
Mg1 Pt5,17.55418454764601
Mg1 Pt7,18.402934421651512
Mg1 Re1 O3,7.112386319166634
Mg1 Re1 O4,6.693999114680033
Mg1 Re3,16.01975277088009
Mg1 Rh1,6.911663556196469
Mg1 Rh1 F6,3.7957211986341433
Mg1 Rh1 O3,4.903871935055412
Mg1 Rh2 Pb1,10.713509500178684
Mg1 Rh3,9.436342302548798
Mg1 Rh5,10.192679937077571
Mg1 Ru1 O3,4.916010490277894
Mg1 Ru2 W1,0.8645727428645699
Mg1 S1,2.0237627907067632
Mg1 S2,2.349353868781681
Mg1 S3,2.6382202053467743
Mg1 Sb1,4.60172617165784
Mg1 Sb1 F6,3.5419393669134767
Mg1 Sb1 Pd1,6.539555386230799
Mg1 Sb1 Pd2,8.47297051189492
Mg1 Sb1 Pt1,8.824873633187616
Mg1 Sb1 Rh2,0.682962386138252
Mg1 Sb1 Ru2,9.214871413889998
Mg1 Sb2,5.428076447623547
Mg1 Sb3,6.187722462745261
Mg1 Sc1,2.4598446954581616
Mg1 Sc1 Ag2,6.093832313876263
Mg1 Sc1 Al1 O4,3.441480180940468
Mg1 Sc1 Au2,0.7956203522122575
Mg1 Sc1 B1,2.706196171941525
Mg1 Sc1 Cd2,5.680229413919952
Mg1 Sc1 Cu2,0.293125982189967
Mg1 Sc1 Cu3 Se4,4.807187011654597
Mg1 Sc1 Ga1,3.395852186750268
Mg1 Sc1 Hg2,9.204487498165143
Mg1 Sc1 In2,0.4177187728491467
Mg1 Sc1 Ir2,0.9133538458637832
Mg1 Sc1 Ni2,0.4405480040339972
Mg1 Sc1 Pd2,6.760922569080031
Mg1 Sc1 Pt2,11.178596533070928
Mg1 Sc1 Rh2,7.097466734852726
Mg1 Sc1 Tl1,5.4967309839559455
Mg1 Sc1 Tl2,0.6202866274780083
Mg1 Sc1 Zn2,4.6236316608873205
Mg1 Sc2,2.6134415085265275
Mg1 Sc2 Ag1,0.2992714531201061
Mg1 Sc2 Al1,2.827087929183932
Mg1 Sc2 Au1,0.4577009955495667
Mg1 Sc2 Cd1,4.166068507916979
Mg1 Sc2 Ga1,0.2569155503799655
Mg1 Sc2 Hg1,0.4321547180331963
Mg1 Sc2 In1,4.212973716390909
Mg1 Sc2 Ir1,0.4727885074931529
Mg1 Sc2 Os1,6.7839488909764505
Mg1 Sc2 Ru1,4.389182897916208
Mg1 Sc2 Tc1,4.610023950834155
Mg1 Sc2 Tl1,5.763033057070613
Mg1 Sc2 Zn1,0.251940081374454
Mg1 Sc3,2.70069927068061
Mg1 Sc3 Ru2,5.231175469836334
Mg1 Sc5,2.7975413178003943
Mg1 Se1,3.174660675151612
Mg1 Si1,2.258487994788408
Mg1 Si1 As2,3.4827693354362577
Mg1 Si1 H2 O4,3.309093498683958
Mg1 Si1 Ir2,13.182822129278346
Mg1 Si1 N2,3.0865180182864966
Mg1 Si1 O3,3.79871770962978
Mg1 Si1 O4,3.2805878120007845
Mg1 Si1 P2,2.2413569226947585
Mg1 Si1 Pd2,0.5143254248897261
Mg1 Si1 Rh2,7.866936649162329
Mg1 Si1 Ru2,0.5223937473207285
Mg1 Si1 Sb2,3.96262591735762
Mg1 Si2,2.304359905825
Mg1 Si3,2.755133870999804
Mg1 Sn1,4.411931047871228
Mg1 Sn1 As2,4.251694590361433
Mg1 Sn1 Au1,8.136886912645753
Mg1 Sn1 F6,3.651431437601583
Mg1 Sn1 Ir2,13.530284859920837
Mg1 Sn1 O3,4.863389810713269
Mg1 Sn1 O6,2.912438362232594
Mg1 Sn1 P2,3.331935987196626
Mg1 Sn1 Pd2,8.578166868537648
Mg1 Sn1 Pt2,1.2134303349298023
Mg1 Sn1 Rh2,9.031500314763138
Mg1 Sn1 Ru2,0.6600174429662966
Mg1 Sn2,5.571616074003295
Mg1 Sn2 N2,5.202785954831287
Mg1 Sn3,5.994530593256512
Mg1 Sn5,6.336072763211107
Mg1 Ta1,8.827102746788478
Mg1 Ta1 Ir2,15.454881184270745
Mg1 Ta1 N2,9.345597068687436
Mg1 Ta1 Os2,15.582927954571671
Mg1 Ta1 Rh2,10.894014039872172
Mg1 Ta1 Ru2,10.98079486049745
Mg1 Ta1 Zn1,7.720098159176675
Mg1 Ta2 N3,11.313710464645792
Mg1 Ta3,12.684606550893625
Mg1 Te1,3.648791210911923
Mg1 Ti1,3.037416770255521
Mg1 Ti1 Au2,0.6474025460716709
Mg1 Ti1 Co2,0.4072460323038061
Mg1 Ti1 Cu2,0.4403368559686402
Mg1 Ti1 F4,3.706391363134697
Mg1 Ti1 F6,2.845226339395592
Mg1 Ti1 H4,2.7164343256163668
Mg1 Ti1 Ir2,12.71354782792484
Mg1 Ti1 N2,4.174753215010936
Mg1 Ti1 Ni2,0.4495533866429034
Mg1 Ti1 O3,3.5172801857728566
Mg1 Ti1 Pd2,0.4658194283254923
Mg1 Ti1 Pt2,0.9170319157978024
Mg1 Ti1 Rh2,7.74761102449901
Mg1 Ti1 Zn2,0.3470913637180988
Mg1 Ti2,3.535706569248633
Mg1 Ti2 N2,3.2130725908966014
Mg1 Ti3,3.775663731612014
Mg1 Ti5,4.031516728134054
Mg1 Tl1,7.550404048694951
Mg1 Tl1 Cu3 Se4,5.613728986102513
Mg1 Tl1 F3,6.652308461832168
Mg1 Tl1 O3,7.350449885126004
Mg1 Tl1 Pd2,0.7392063142563137
Mg1 Tl1 Rh2,10.79248716783887
Mg1 Tl3,9.168745826630737
Mg1 V1 Cu3 Se4,5.006681449010499
Mg1 V1 F6,2.905598840223455
Mg1 V1 O3,3.791494950360921
Mg1 V1 Rh2,0.5224217509067314
Mg1 V1 Ru2,0.4626735660935061
Mg1 V2 N2,3.692764161588742
Mg1 V2 O6,2.606236820039911
Mg1 W1 F6,4.484537542529182
Mg1 W1 O3,6.208463463994726
Mg1 W2 N2,8.989408947183652
Mg1 W3,14.084709582297153
Mg1 Zn1,3.893770051212188
Mg1 Zn1 Ag2,7.198164288923391
Mg1 Zn1 Au2,11.741973936727907
Mg1 Zn1 Co1,5.618982841824353
Mg1 Zn1 Cu1,5.46318383472539
Mg1 Zn1 Cu2,0.4788012544407444
Mg1 Zn1 Ni2,0.551364577449523
Mg1 Zn1 O2,4.099819732442975
Mg1 Zn1 O3,4.101381154433109
Mg1 Zn1 Pd2,8.260673624612895
Mg1 Zn1 Pt2,0.9408290735461048
Mg1 Zn1 Rh2,8.450234126207715
Mg1 Zn1 S2,2.953574872480071
Mg1 Zn2,4.85107312990281
Mg1 Zn2 Ir1,0.6246588844363218
Mg1 Zn2 N2,5.377118697139606
Mg1 Zn2 O3,5.608655380155502
Mg1 Zn2 Pd1,0.4639551740566209
Mg1 Zn2 Pt1,0.7487937494306194
Mg1 Zn2 Rh1,0.4752434126951171
Mg1 Zn2 Ru1,0.3484484717746915
Mg1 Zn2 Sb2,5.493139140754842
Mg1 Zn3,5.434327624389002
Mg1 Zn3 O4,4.786806503439145
Mg1 Zn3 S4,3.4495068279486407
Mg1 Zn5,5.990365195609467
Mg1 Zr1,4.263040714207669
Mg1 Zr1 Ag2,0.492964776330895
Mg1 Zr1 Au2,11.003227875298244
Mg1 Zr1 Cd2,0.4641361782537224
Mg1 Zr1 F6,2.874926137504069
Mg1 Zr1 Hg2,0.7292890252541061
Mg1 Zr1 Ir2,12.446320745654813
Mg1 Zr1 N2,5.098823726709677
Mg1 Zr1 Ni2,6.282058153325652
Mg1 Zr1 O3,3.845387571401235
Mg1 Zr1 Pd2,7.684728600554852
Mg1 Zr1 Pt2,0.957294049739543
Mg1 Zr1 Rh2,8.0243522792649
Mg1 Zr1 Zn2,0.3765115300544824
Mg1 Zr2,4.858028644162112
Mg1 Zr2 Tc1,0.3036603491724363
Mg1 Zr3,5.461997474029428
Mg2 Ag1,4.336096894003885
Mg2 Ag1 Au1,8.054142684615984
Mg2 Ag1 Hg1,0.5357397031516079
Mg2 Ag1 Ir1,8.746261692498674
Mg2 Ag1 Pd1,0.4546231397899502
Mg2 Ag1 Pt1,8.535652780602677
Mg2 Ag1 Rh1,6.4774502404953225
Mg2 Al1 O6,1.0874832364115417
Mg2 Al2 O5,3.334399372395008
Mg2 Al2 Se5,3.7657167627916097
Mg2 As1,2.4564701041118067
Mg2 Bi1,5.409501351884744
Mg2 Bi3,7.330066767598383
Mg2 Cd1,3.944443159661711
Mg2 Cd1 Ag1,0.3912290435713175
Mg2 Cd1 Au1,0.53787935603237
Mg2 Cd1 Ga1,0.3462511307859873
Mg2 Cd1 Hg1,0.516139669595641
Mg2 Cd1 In1,0.3997171607817439
Mg2 Cd1 Ir1,0.516846318425487
Mg2 Cd1 N2,4.798743290712079
Mg2 Cd1 Pb1,0.4976931952973727
Mg2 Cd1 Pd1,0.4028316199567032
Mg2 Cd1 Pt1,0.572405620485158
Mg2 Cd1 Rh1,0.3290345181343499
Mg2 Cd1 Sn1,0.4166731685643693
Mg2 Cu1,3.373850582045673
Mg2 Cu1 Ag1,0.3664665309270116
Mg2 Cu1 As2,0.1402414873714979
Mg2 Cu1 Au1,0.5571763691384151
Mg2 Cu1 Ir1,0.6723517132561088
Mg2 Cu1 Pd1,0.4260554271385509
Mg2 Cu1 Pt1,0.6016748000120848
Mg2 Cu1 Rh1,0.4304628676956555
Mg2 Cu1 Si3,3.425440675273447
Mg2 Fe1,3.226671760261468
Mg2 Fe1 H6,2.7767774317396268
Mg2 Ga1,3.11278771668829
Mg2 Ga1 Au1,0.5570231015530198
Mg2 Ga1 Cu1,0.380972637080476
Mg2 Ga1 Hg1,0.5446975137580196
Mg2 Ga1 Pb1,0.4396565487106769
Mg2 Ga1 Pd1,0.398300779660075
Mg2 Ga2 S5,3.10018785541274
Mg2 Ge1,3.0358803533733467
Mg2 Ge2 O5,4.798600713741212
Mg2 H2 O3,2.611471628026901
Mg2 H6 Os1,5.456167141277982
Mg2 H6 Ru1,3.5296392104064847
Mg2 Hg1 Au1,0.7206976530699131
Mg2 Hg1 Bi1,0.6586079946456661
Mg2 Hg1 Pb1,0.6207897572676656
Mg2 Hg1 Pd1,0.5489817456681741
Mg2 Hg1 Pt1,0.5867306595158562
Mg2 Hg1 Rh1,0.5331884163552526
Mg2 In1,3.87320035431762
Mg2 In1 Ag1,0.4034540614051749
Mg2 In1 Ga1,0.3538290679929616
Mg2 In1 N2,4.501572629479908
Mg2 In1 Pb1,0.4888401935319823
Mg2 In1 Pd1,0.4048048220326116
Mg2 Ir1 Au1,11.098225326692091
Mg2 Ir1 Pd1,0.6769605811626516
Mg2 Ir1 Pt1,0.8217963320611666
Mg2 Ir1 Rh1,9.353358927848516
Mg2 Ir2 O5,8.381781460307575
Mg2 Mn1 As2,4.033074431693494
Mg2 Mn1 Ge2,0.1714109280881123
Mg2 N1 F1,2.9898867648972405
Mg2 Nb1 Fe1,5.049544260533465
Mg2 Ni1,3.0856870675848995
Mg2 Ni1 H4,2.816573953326177
Mg2 Ni1 Ir1,8.552118514457339
Mg2 Ni1 Pt1,0.6625747720273556
Mg2 Ni1 Rh1,5.876110002873035
Mg2 Ni3 P1,5.477005996384816
Mg2 Os1 S6,4.106062240064524
Mg2 P1,1.4524660715370858
Mg2 Pb1,5.133266291215764
Mg2 Pb1 N2,6.301016368899969
Mg2 Pb1 W1,8.91579254440127
Mg2 Pd1,4.744328789210988
Mg2 Pd1 Au1,8.547312757418798
Mg2 Pd1 N2,5.07491965023898
Mg2 Pd1 Pt1,9.063495794067236
Mg2 Pd1 Rh1,6.884959871671035
Mg2 Pt1,6.979158014557101
Mg2 Pt1 Au1,0.815420140175158
Mg2 Pt1 Rh1,9.286124750786223
Mg2 Rh1,4.842911429151424
Mg2 Rh1 Au1,8.823634951755183
Mg2 Ru1,3.9559851830532033
Mg2 Sb1,3.793646444627041
Mg2 Sb3,4.805787366516548
Mg2 Sc1,2.195446372863481
Mg2 Se1 S1,2.6523090153864253
Mg2 Si1,1.975370395749873
Mg2 Si1 Ni3,5.278673366547363
Mg2 Si1 O4,3.5541187029128225
Mg2 Si1 Pt1,6.553518011877667
Mg2 Si2 O5,3.7516340037543903
Mg2 Sn1,3.508687760498868
Mg2 Sn1 Hg1,0.5588213308610923
Mg2 Te1 S1,3.03646231834378
Mg2 Te1 Se1,3.454429479005771
Mg2 Ti1,2.550163309713726
Mg2 Tl1,5.81664199917035
Mg2 Tl1 Cd1,0.4235558788384849
Mg2 Tl1 Hg1,0.5380670646177989
Mg2 Tl1 In1,0.4490334713170104
Mg2 Tl1 Pb1,7.304759135667301
Mg2 Zn1,3.124907308544986
Mg2 Zn1 Ag1,0.356016677593046
Mg2 Zn1 As2,4.167743427359626
Mg2 Zn1 Au1,0.5338918040918875
Mg2 Zn1 Cd1,0.3408745979505121
Mg2 Zn1 Cu1,0.3248651609008015
Mg2 Zn1 Ga1,0.3262489917037634
Mg2 Zn1 Hg1,0.4396709919096817
Mg2 Zn1 Ir1,0.5447485508383524
Mg2 Zn1 O3,4.56151324709191
Mg2 Zn1 P2,3.149289079039556
Mg2 Zn1 Pd1,5.416463353179644
Mg2 Zn1 Pt1,7.705820584515234
Mg2 Zn1 Rh1,5.574736574658169
Mg2 Zn1 Sb2,4.692322656554511
Mg3 Ag1,3.7072530507272017
Mg3 Al1,1.9672357294747789
Mg3 As1 N1,3.5180052036289178
Mg3 As2,3.411501492812095
Mg3 Au1,5.065608966800242
Mg3 B1 O4,3.360980298343991
Mg3 Bi1,4.538106921833529
Mg3 Bi1 O4,5.568342740630026
Mg3 Bi2,5.666621616026668
Mg3 Br1,2.493247438916912
Mg3 C1,1.7566939906013002
Mg3 C1 O4,3.340962166434852
Mg3 Cd1,3.432124324897516
Mg3 Cd1 O4,4.708865462737478
Mg3 Co1,3.176650066397253
Mg3 Co1 O4,4.226936617846159
Mg3 Cr1,2.511305811620998
Mg3 Cu1,2.966893637884429
Mg3 Cu1 O4,4.339505812980477
Mg3 Fe1,2.898927535700018
Mg3 Fe1 O4,4.07992627376597
Mg3 Ga1,2.781425450291412
Mg3 Ga1 O4,4.130018427778041
Mg3 Ge1,2.715277621487484
Mg3 Hg1,5.062612301414503
Mg3 Hg1 Au2,9.687896019667187
Mg3 In1,3.289027917259368
Mg3 In1 Ag4,6.739295002190414
Mg3 Ir1,5.843862155033293
Mg3 Mn1,2.2549450876875565
Mg3 Mn1 Te4,3.909831170726224
Mg3 Mo1,3.7828526364532657
Mg3 Mo1 O4,4.339897920165947
Mg3 N1,2.228755505781192
Mg3 N1 F3,3.088405279111448
Mg3 Os1,6.177302728526711
Mg3 Pb1,4.778601632633137
Mg3 Pd1,3.7661983941241983
Mg3 Pt1,5.755376497498733
Mg3 Re1,5.909503053191049
Mg3 Ru1,4.1156357341538135
Mg3 Sb1,3.321689951578957
Mg3 Sb1 N1,4.130870742301784
Mg3 Sb1 O4,4.3958570954545095
Mg3 Sb2,3.936735684157168
Mg3 Sc1,2.131587945019505
Mg3 Si2,2.204697115251549
Mg3 Sn1,3.323516634660584
Mg3 Ta1,5.305255004084435
Mg3 Tc1,3.882567848495404
Mg3 Te1,3.4429420320231383
Mg3 Ti1,2.364447523652572
Mg3 Tl1,4.91737441789479
Mg3 V1,2.5059405937596058
Mg3 W1 O4,6.075936518962241
Mg3 Zn1,2.7820502116881705
Mg3 Zn1 C1,2.9167525115121338
Mg3 Zn1 O4,4.289125920618195
Mg3 Zr1,3.0716015084363497
Mg4 B3 Ir2,6.567613771969941
Mg4 Sc1,2.0156414293123435
Mg4 Se3 S1,2.9175272200898186
Mg4 Si1 Ge1,2.5141708008223915
Mg4 Si1 Sn1,2.8314905642316908
Mg4 Si3,2.192720115133344
Mg4 Sn1 Ge1,3.5394535757945893
Mg4 Te3 S1,3.394966241644515
Mg4 Te3 Se1,3.568032213916988
Mg5 Ag1,2.9830559833510533
Mg5 As1,2.4883657938713664
Mg5 Au1,4.283151667853975
Mg5 Bi1,3.702529547145992
Mg5 Cd1,2.8426531417044694
Mg5 Cu1,2.575169601086224
Mg5 Ga1,2.4045587802564605
Mg5 Ge1,2.344593342136719
Mg5 Hg1,3.9590685897419857
Mg5 In1,2.8234068470714866
Mg5 Pb1,3.7470430691007537
Mg5 Pd1,3.1787417011717056
Mg5 Pt1,4.340888828967049
Mg5 Sb1,2.8643499397320418
Mg5 Sc1,1.979398185182539
Mg5 Se1,2.363618346545565
Mg5 Sn1,2.81801802823555
Mg5 Te1,2.90520914521465
Mg5 Ti1,2.1286834668825607
Mg5 Zn1,2.398589744440542
Mg6 Al1 C1,2.0053356071614985
Mg6 B1 C1,1.8490894128294464
Mg6 B1 Sb1,2.779572755988157
Mg6 Bi1 B1,3.476156858725823
Mg6 Cd1 B1,2.8055056707771286
Mg6 Cd1 C1,2.731997107718372
Mg6 Cd1 In1,3.435154101449714
Mg6 Cd1 Sn1,3.432668996337232
Mg6 Co1 C1,2.524146029366244
Mg6 Cr1 C1,2.3278171247655
Mg6 Cu1 B1,2.456914528615276
Mg6 Cu1 C1,2.5575626462349903
Mg6 Cu1 Ni1,3.07553866208128
Mg6 Cu1 Si1,2.513955678298131
Mg6 Fe1 C1,2.365995868465998
Mg6 Fe1 Mo1,3.280301665031593
Mg6 Fe1 Ni1,2.89271175719366
Mg6 Fe1 Si1,2.481356119161458
Mg6 Ga1 B1,2.412590221680896
Mg6 Ga1 C1,2.478658131033144
Mg6 Mn1 C1,2.39196064153746
Mg6 Nb1 C1,2.477730959623033
Mg6 Ni1 B1,2.2825046513038294
Mg6 Ni1 Sb1,3.28010947351475
Mg6 Si1 B1,2.007456374725569
Mg6 Si1 Ge2,2.6926436353713634
Mg6 Si1 Sn2,3.073127470515701
Mg6 Sn1 B1,2.75137839048786
Mg6 Sn2 Ge1,3.389431317175725
Mg6 Ti1 C1,2.099271160546345
Mg6 V1,2.0085719722829865
Mg6 V1 B1,2.177257647371728
Mg6 V1 C1,2.1838996461849813
Mg6 V1 W1,4.082516803097688
Mg6 Zn1 B1,2.373952781786578
Mg6 Zn1 Fe1,2.8786562257541126
Mg6 Zr1 B1,2.5955326148129205
Mg6 Zr1 C1,2.3030083867846463
Mg7 Nb1,2.578987960692272
Mg7 Sc1,1.9198971089184431
Mg7 Ti1,2.068507734480809
Mg7 V1,2.212034614769596
Mn1,7.656140303944365
Mn1 Ag1 F3,4.255890847975408
Mn1 Ag1 N1,7.327981439822271
Mn1 Ag1 O2,6.120415703738996
Mn1 Ag1 Pd2,0.7596885430768964
Mn1 Ag2 Ge1 Te4,5.543122142240874
Mn1 Ag2 Sn1 Te4,5.564086198862973
Mn1 Al1,5.127964867313004
Mn1 Al1 Au2,12.035820200445425
Mn1 Al1 Co2,7.162480763044559
Mn1 Al1 Cu1 Pd1,7.466994237440995
Mn1 Al1 Cu2,6.685943178152612
Mn1 Al1 F5,3.295338922476559
Mn1 Al1 Fe1 Co1,7.086779598011405
Mn1 Al1 Fe2,6.536479882137167
Mn1 Al1 Ge1,5.706357765752278
Mn1 Al1 Ir1,8.803234250501909
Mn1 Al1 Ir2,13.893391678411858
Mn1 Al1 N2,4.038490812055141
Mn1 Al1 Ni2,6.845276537860061
Mn1 Al1 Ni6,8.183449564418371
Mn1 Al1 O3,4.06098517730827
Mn1 Al1 Os2,14.236714988878363
Mn1 Al1 Pd2,8.233371879299606
Mn1 Al1 Pt1,10.322806052255793
Mn1 Al1 Pt2,13.142004053655166
Mn1 Al1 Rh2,8.550270422093169
Mn1 Al1 Ru2,8.79641652017689
Mn1 Al1 Tc1,6.048078136196442
Mn1 Al1 V2,5.800582330082793
Mn1 Al2 Co1,5.659702575715321
Mn1 Al2 Cr3,5.932698828168062
Mn1 Al2 Cu1,5.43949419471843
Mn1 Al2 Fe1,0.3209844333555849
Mn1 Al2 Ir1,0.6618039416123703
Mn1 Al2 Ni1,5.522663487793679
Mn1 Al2 S4,2.752463127644856
Mn1 Al2 Tc1,0.442465220273525
Mn1 Al2 Te4,4.548554084872758
Mn1 As1,4.6868809452854014
Mn1 As1 Pd1,8.133042801854714
Mn1 As1 Pd2,9.106087172597912
Mn1 As1 Rh1,8.637513832565915
Mn1 As1 Ru1,8.578122906979113
Mn1 As1 Ru2,0.8025582252505995
Mn1 Au1,12.429139668223266
Mn1 Au1 O2,8.846311041265302
Mn1 Au2,14.565273335220049
Mn1 Au3,15.146516159330869
Mn1 Au4,15.775498462496529
Mn1 B1,6.499320317614377
Mn1 B1 O3,4.817452414888827
Mn1 B2,5.574663392752981
Mn1 B4,4.433316164878017
Mn1 B4 Mo3,7.9882762238189535
Mn1 B4 W3,13.490048440401656
Mn1 Be1 Co2,0.5034292509043184
Mn1 Be1 Ir2,0.9565066072042052
Mn1 Be1 Pt2,1.3347533604742594
Mn1 Be1 Ru2,0.8373495148388961
Mn1 Be2 Co1,5.861189512706968
Mn1 Be2 Ir1,10.294042032337542
Mn1 Be2 Os1,0.7586165118193939
Mn1 Be2 Pt1,10.214765868436672
Mn1 Be2 Rh1,6.852919459061189
Mn1 Be2 Ru1,0.5306786963905072
Mn1 Be3,3.930608698300803
Mn1 Be4 Al1,3.498326326862495
Mn1 Bi1,8.599127343758049
Mn1 Bi2 Te4,7.266322804041264
Mn1 Bi3,9.9134373802693
Mn1 Br2,3.8257757157706376
Mn1 C1 N2,3.35216258073585
Mn1 Cd1 Au2,0.9397729985205284
Mn1 Cd1 Hg1 Te3,5.977967925285912
Mn1 Cd1 O2,6.535999181423456
Mn1 Cd1 O3,6.451628142884849
Mn1 Cd1 Pd2,0.7136822675508143
Mn1 Cd1 Rh2,0.7367817352386575
Mn1 Cd1 S2,3.974865813937002
Mn1 Cd1 Se2,4.855053873950632
Mn1 Cd1 Te1,8.553243903567397
Mn1 Cd1 Te2,5.142625811537275
Mn1 Cd2 N2,7.200981953364887
Mn1 Cd2 Te3,5.2627301493962015
Mn1 Cd3,8.207570358652637
Mn1 Cd3 Te4,5.343639924135121
Mn1 Cl2,2.673234318656546
Mn1 Cl2 O2,2.810087254747464
Mn1 Co1,8.137366157288561
Mn1 Co1 B1,7.77616296232707
Mn1 Co1 B2,7.090051312469029
Mn1 Co1 Cu1 Sn1,8.740381413235221
Mn1 Co1 Ge1,8.307566216059978
Mn1 Co1 N2,6.080264627648645
Mn1 Co1 Ni1 Sn1,8.844997634355025
Mn1 Co1 O4,4.342675640926687
Mn1 Co1 P2,6.3657384550388105
Mn1 Co1 Pt2,14.935228607763436
Mn1 Co1 S1,6.021095870706779
Mn1 Co1 Sb1,7.340952421306909
Mn1 Co1 Se1,7.187685317554166
Mn1 Co1 Se2,6.502685289210197
Mn1 Co1 Si1,6.0434844782075166
Mn1 Co1 Si2,6.286144511442377
Mn1 Co1 Sn1,8.661972455995787
Mn1 Co1 Sn1 Pd1,9.248115673231563
Mn1 Co1 Sn1 Rh1,9.498182204242983
Mn1 Co1 Sn4,8.383501306066117
Mn1 Co1 Te1,7.954128745466168
Mn1 Co2 Ge1,8.602198466260763
Mn1 Co2 N2,7.20434802049175
Mn1 Co2 O6,4.404192687977071
Mn1 Co2 Sb1,8.953687287326847
Mn1 Co2 Si1,7.369236101468549
Mn1 Co2 Sn1,9.005010907425865
Mn1 Co3,8.958971802910327
Mn1 Co3 C1,7.648716366083703
Mn1 Cr1,7.80980876609525
Mn1 Cr1 As1,7.700720600380403
Mn1 Cr1 B2,6.353741528313736
Mn1 Cr1 N2,6.703104497957716
Mn1 Cr1 Ni4 Sn2,8.595026278129232
Mn1 Cr1 P2,5.8932600584139285
Mn1 Cr1 Pt6,17.487908019876937
Mn1 Cr1 Re1,10.303597721251943
Mn1 Cr1 Sb1,7.665583734587249
Mn1 Cr1 Sb2,7.215428997003798
Mn1 Cr1 Se1 S1,5.158716762970427
Mn1 Cr1 Si2,5.740164737350593
Mn1 Cr1 Te2,6.750467189126037
Mn1 Cr2 S4,4.370419031435157
Mn1 Cr2 Se3 S1,5.063332839015128
Mn1 Cr2 Se4,5.460394705932345
Mn1 Cr3 Te4,6.520804362253473
Mn1 Cu1 Ag2 O4,6.5303603128515375
Mn1 Cu1 As1,7.323407256796659
Mn1 Cu1 Au2,1.1521500411283676
Mn1 Cu1 F6,3.881917741295782
Mn1 Cu1 Ni1 Sn1,8.60570109008741
Mn1 Cu1 O2,5.176487110161748
Mn1 Cu1 Pd2,9.577905923351654
Mn1 Cu1 Pt2,1.2359132204203622
Mn1 Cu1 Pt6,17.783299806177777
Mn1 Cu1 Rh2,0.8914710525424094
Mn1 Cu1 Sb1,7.082846138899321
Mn1 Cu2 Cl4,3.519823591496068
Mn1 Cu2 Ge1 Te4,5.656942281182147
Mn1 Cu2 Sb1,8.08960465106064
Mn1 Cu2 Sb1 O4,5.319364770422045
Mn1 Cu2 Si1 Te4,5.428773755496009
Mn1 Cu2 Sn1,8.209805459297346