Composition,Density
Sr2 Ag1 Pb1,0.4676536659860181
Sr2 Ag1 Pd1,0.4497518182683154
Sr2 Ag1 Pt1,7.226844705704507
Sr2 Ag1 Sb1,0.4600895255035427
Sr2 Ag1 Sn1,0.4279537889769045
Sr2 Al1 Ga3,4.274868745683156
Sr2 Al1 In3,5.190741613368432
Sr2 Al3 Ge1,3.35199563700964
Sr2 Al3 In1,3.893101304476658
Sr2 As1,4.145595832768615
Sr2 As1 Au1,6.572764368540655
Sr2 As3 Ir3,2.240297822455622
Sr2 Au1 N1,6.638007074729133
Sr2 B1 Br1 N2,3.6804816739586266
Sr2 Bi1,5.294435854683081
Sr2 Bi1 Au1,7.478776965972901
Sr2 Bi2 O5,6.092190713434542
Sr2 Bi3 Pd3,1.898559252871465
Sr2 Br1 N1,4.450620704591859
Sr2 Br2 F1,1.2387516936647474
Sr2 C1 N2 Cl2,3.1247493635421173
Sr2 Ca1 Eu1,3.1633980352104034
Sr2 Ca1 I6,3.920473967202424
Sr2 Ca1 N2,3.387904293949436
Sr2 Cd1 Ag1,0.3801463175340792
Sr2 Cd1 Au3,9.205001885034877
Sr2 Cd1 Cu1 S2 O2,4.889016108208843
Sr2 Cd1 Ga1,0.3724344366971572
Sr2 Cd1 Ge1,0.3595400454399283
Sr2 Cd1 Hg1,0.4367685700253632
Sr2 Cd1 In1,4.916342996147264
Sr2 Cd1 N2,5.027026807280698
Sr2 Cd1 Pb1,5.969014888479483
Sr2 Cd1 Pt2,8.809225149511187
Sr2 Cd1 Sn1,5.044123369071971
Sr2 Cd2 Cu1 S2 O2,5.379901094949108
Sr2 Cl2 F1,1.020220140471262
Sr2 Co1 C2 O2,4.481318148852261
Sr2 Co1 N2,4.715653275633059
Sr2 Co1 O3,3.459375971314559
Sr2 Co1 O4,5.224029483741963
Sr2 Co1 Se1 O2,5.054499594673226
Sr2 Co2 O5,4.139372500855403
Sr2 Cr1 O4,5.119566965247562
Sr2 Cu1 Ag2 S2 O2,5.802353948571353
Sr2 Cu1 Br1 O2,4.240271213123863
Sr2 Cu1 Br2 O2,4.465675500375288
Sr2 Cu1 C1 N2 O2,4.285351140024503
Sr2 Cu1 C1 O5,4.493157670166839
Sr2 Cu1 Cl2 O2,3.8028645018639393
Sr2 Cu1 I2 O2,5.111788396202683
Sr2 Cu1 N2,4.740848765982998
Sr2 Cu1 O2 F2,4.754913164231129
Sr2 Cu1 O3,5.321943242365502
Sr2 Cu1 O4,5.269656104791536
Sr2 Cu1 Pd1,0.4892989539340323
Sr2 Cu1 Pt1,6.948275731713993
Sr2 Cu1 Pt1 O2,7.1719042537267805
Sr2 Cu1 S1 O2,4.799061109029558
Sr2 Cu1 S2 Cl2,3.635023650300665
Sr2 Cu1 S2 F1,1.935729513134044
Sr2 Cu1 Se1 O2,5.323899482187957
Sr2 Cu1 Te1 O2,5.524617163002151
Sr2 Cu2 Ni1 S2 O2,5.4021906134590605
Sr2 Cu2 O3,3.3022979820637097
Sr2 Cu3 S2 O2,5.381649916499467
Sr2 Fe1 As2 F1,3.619042743072486
Sr2 Fe1 H6,3.806553085137142
Sr2 Fe1 O4,5.106826109567401
Sr2 Fe2 Se2 O1 F2,5.049978139928863
Sr2 Ga1 Hg1,0.4614454591922697
Sr2 Ga1 Si1,3.813373695117144
Sr2 Ga3 Au3,7.441258299661197
Sr2 Gd1 S3,3.0108286501069603
Sr2 Ge2 O5,5.599751623197846
Sr2 Ge2 Pb1,5.876130843800896
Sr2 H1 Br2,1.243210526866458
Sr2 H1 Cl2,0.9003002202769799
Sr2 H1 I2,0.3379628510264
Sr2 H1 N1,3.928177143164844
Sr2 H3 I1,4.201942570363848
Sr2 H5 Rh1,4.185073142950078
Sr2 H6 Os1,5.49603247669673
Sr2 H6 Ru1,4.2164941113340415
Sr2 Hf1 O4,6.382579615368473
Sr2 Hg1 Bi1,0.5683398709065209
Sr2 Hg1 Ge1,0.4811571208264284
Sr2 Hg1 Pb1,7.092677637515413
Sr2 Hg1 Sb1,0.5332884598962254
Sr2 I1 N1,4.7686729717391545
Sr2 I2 F1,1.740972295956193
Sr2 In1 Hg1,0.5195942102289478
Sr2 In1 Pb1,0.4451770407836057
Sr2 In3 Rh2,6.881506144370534
Sr2 Ir1,6.330123039529565
Sr2 Ir1 O4,7.176818170329531
Sr2 Li1 Al1,0.2263908481033897
Sr2 Li1 Cd1,0.2655115567941531
Sr2 Li1 Ga1,0.2738102933860131
Sr2 Li1 Hg1,0.3585409751414802
Sr2 Li1 In1,3.5638732797516246
Sr2 Li1 Ir1,0.4865740360885389
Sr2 Li1 Mg1,0.1823855896990438
Sr2 Li1 N1,3.059087793614269
Sr2 Li1 Pb1,0.3556190994494182
Sr2 Li1 Pd1,0.3366537050400668
Sr2 Li1 Pt1,5.657799863569536
Sr2 Li1 Rh1,0.3600312929609051
Sr2 Li1 Sn1,0.296872016418202
Sr2 Li1 Tl1,4.617720079913774
Sr2 Li1 Zn1,0.2460204599942951
Sr2 Mg1,2.429842388710933
Sr2 Mg1 Cd1,0.2736922386555808
Sr2 Mg1 H6,3.106366635072523
Sr2 Mg1 Hg1,0.3876641252406366
Sr2 Mg1 In1,0.3349227897509436
Sr2 Mg1 N2,3.6831139605855343
Sr2 Mg1 Pb1,0.3618113616793229
Sr2 Mg1 Tl1,0.3599472970033645
Sr2 Mn1 O4,5.19733954325367
Sr2 Mn1 Sn2,0.3742118946557339
Sr2 Mn1 Zn2 As2 O2,5.418260490325081
Sr2 Mn2 Cu1 As2 O2,5.480194678971176
Sr2 Mn3 As2 O2,4.974791117402809
Sr2 Mn3 Bi2 O2,6.45700725848536
Sr2 Mn3 Sb2 O2,5.265284636075353
Sr2 Mo1 O4,5.298045917124481
Sr2 N1,0.1194410872345356
Sr2 N1 Cl1,3.955978688245192
Sr2 N1 O6,3.506810894523679
Sr2 Nb1 N2 O2,5.075502335192888
Sr2 Ni1 N2,4.701986487811402
Sr2 Ni1 O3 F1,5.169353010346594
Sr2 O3,3.864461663271899
Sr2 P1 Au1,0.5104839706411288
Sr2 Pd1 Au1,0.6086523746894209
Sr2 Pd1 N2,5.30425907778795
Sr2 Pd1 O3,5.848719555551939
Sr2 Pd1 Pt1,0.6538191265503867
Sr2 Pr1 F6,4.720896678657766
Sr2 Pt1 Au1,8.201577823129593
Sr2 Pt1 N2,6.816679185886279
Sr2 Rh1,4.629026115057473
Sr2 Rh1 O4,5.712544566675654
Sr2 Ru1 N2,5.140963909448256
Sr2 Ru1 O4,5.748954439320184
Sr2 S1 O1,3.966832194158781
Sr2 Sb1,4.303773205609331
Sr2 Sb1 Au1,6.563641705970557
Sr2 Sb3 Pd3,6.317730269677773
Sr2 Sb3 Pt3,2.49551397581143
Sr2 Se1 S1,4.019579848574119
Sr2 Si1,3.523173129815888
Sr2 Si3,3.121425168348776
Sr2 Si3 Ni1,3.923187754197879
Sr2 Sm1 S3,2.910487761641257
Sr2 Sn1 Hg1,6.177269004788767
Sr2 Sn1 N2,5.219149820081119
Sr2 Sn1 O4,5.519724099036877
Sr2 Ta1 N1 O3,6.599430165783661
Sr2 Tc1 O4,5.6584776098223815
Sr2 Ti1 O4,4.873252813094423
Sr2 Ti2 As2 O1 F2,4.850378375112182
Sr2 Ti2 Bi2 O1 F2,6.571444457709696
Sr2 Ti2 O5,4.760927135853026
Sr2 Ti2 Sb2 O1 F2,5.226619161620083
Sr2 Tl1 Cd1,5.9859250777904
Sr2 Tl1 Cu1 O5,6.807183418489958
Sr2 Tl1 Ga1,0.4179218017195542
Sr2 Tl1 Hg1,0.538861376831591
Sr2 Tl1 In1,0.4109785918976757
Sr2 Tl1 Pb1,0.5447254120781533
Sr2 Tl1 Zn1,0.4080578054107514
Sr2 V1 O4,5.0606293075423325
Sr2 V1 W1,5.954038734561252
Sr2 Zn1 Ag1,0.3563595337811546
Sr2 Zn1 As2,4.555887779381711
Sr2 Zn1 Bi2,6.108586812138435
Sr2 Zn1 Cd1,0.3161459496254937
Sr2 Zn1 Cu2 S2 O2,5.309931878759118
Sr2 Zn1 Ga1,0.3534216325481737
Sr2 Zn1 Ge1,0.3686810309005201
Sr2 Zn1 Hg1,0.4141773237978437
Sr2 Zn1 In1,0.3668651808300881
Sr2 Zn1 N2,4.58736730066455
Sr2 Zn1 P2,3.825704243475368
Sr2 Zn1 P2 F1,2.8132850510193093
Sr2 Zn1 Pb1,0.407748060320064
Sr2 Zn1 Pt1,6.719949744400291
Sr2 Zn1 Sb2,4.789874516933912
Sr2 Zn1 Sn1,0.3653194658783165
Sr2 Zn3 As2 O2,5.629415625667955
Sr2 Zn3 Cd1,5.227535504945717
Sr2 Zr1 O4,4.900873873056585
Sr3 Ag1,3.7186049986252514
Sr3 Al2 Ge2,3.825312592952202
Sr3 Al2 Ge4,4.466918383523884
Sr3 Al2 Si2,3.159108429272101
Sr3 Al2 Sn2,4.086253782409955
Sr3 As1,3.909192334743506
Sr3 As1 N1,2.993963545670183
Sr3 As1 P1,3.154654124905472
Sr3 As2,3.4942867112666502
Sr3 Au1,4.952235126059042
Sr3 Bi1,4.740561093753485
Sr3 Bi1 As1,3.815433870601266
Sr3 Bi1 N1,3.336449626421829
Sr3 Bi1 P1,3.5308625597219705
Sr3 Bi1 Sb1,4.102310731353994
Sr3 Bi2,4.64195650311884
Sr3 Ca1,2.436443259994206
Sr3 Ca1 N2 Cl2,3.696592908976605
Sr3 Ca1 O4,4.516801764481276
Sr3 Ca1 S4,3.344026599105656
Sr3 Cd1 O4,5.467428410692
Sr3 Ce1,3.547553918679556
Sr3 Cr1,3.082029175296696
Sr3 Cu1,3.3649711863163683
Sr3 Dy1,3.797745234518573
Sr3 Er1,3.825066960191069
Sr3 Eu1,3.2163537122920367
Sr3 Fe1,3.367233153937548
Sr3 H1,2.4508416732273264
Sr3 Hg1,4.592910753013628
Sr3 Ho1,3.8198073382975513
Sr3 In1,3.850702786349121
Sr3 La1,3.458034573627302
Sr3 Li1,2.343892916688241
Sr3 Lu1,3.9076324244186793
Sr3 Mg1,2.5133052513190104
Sr3 Mg1 O4,4.003530173896415
Sr3 Mo1,3.911004860498952
Sr3 N2,3.913149717341605
Sr3 Nb1,3.702162154911184
Sr3 Nd1,3.531959462111552
Sr3 Ni1,3.694046458409948
Sr3 P1,3.6221597508779615
Sr3 P1 N1,2.8043074318005874
Sr3 P2,2.958870798010781
Sr3 Pb1,4.927125560518254
Sr3 Pb1 O1,5.692714685744909
Sr3 Pb1 S4,4.467922639282588
Sr3 Pm1,3.561478274949616
Sr3 Sb1 As1,3.345417302479203
Sr3 Sb1 N1,2.748643644532301
Sr3 Sb1 P1,3.0394120061065366
Sr3 Sb2,3.650431626004152
Sr3 Sc1,2.8546046728269965
Sr3 Sm1,3.6190001528068354
Sr3 Sn1,4.100287006253048
Sr3 Sn1 O1,4.74272315607257
Sr3 Ta1,4.75656080500282
Sr3 Tb1,3.7375854150779406
Sr3 Ti1,3.080557278603197
Sr3 Tm1,3.886067438557359
Sr3 W1,5.2707534823436815
Sr3 Yb1,3.498329947307959
Sr3 Zn1,3.3124633658993146
Sr3 Zr1,3.4594343103351584
Sr4 As2 O1,4.368382027072182
Sr4 Bi2 O1,5.73108143672311
Sr4 Br1 N2 Cl1,4.203971951271032
Sr4 Ga1 Si3,3.62869509033248
Sr4 Ga1 Sn3,4.6383927914525165
Sr4 I1 Br1 N2,4.618838057406581
Sr4 N3,3.873665858311776
Sr4 P2 O1,3.792621772957955
Sr4 S1 O3,4.331215680660001
Sr4 S3 O1,3.735134268805007
Sr4 Sb2 O1,4.634545272707141
Sr4 Se1 S3,3.7879542985634655
Sr4 Se3 S1,4.223291822736469
Sr5 Mg1,2.5351625512449414
Ta1,0.5294211455763627
Ta1 Ag1 O3,8.743087804133681
Ta1 Al1 Co2,10.241165622224054
Ta1 Al1 Fe2,10.23769221143911
Ta1 Al1 Ni2,10.109649925044955
Ta1 Al1 O4,2.488949740950736
Ta1 Al1 Os2,16.169055346319784
Ta1 Al1 Pt1,11.560896220623771
Ta1 Al1 Re2,1.0885201970824128
Ta1 Al1 Ru2,11.461134969496907
Ta1 Al1 Si1,8.368104509874263
Ta1 Al1 Tc2,0.8466462719872648
Ta1 Al3,6.813775743499663
Ta1 As1,12.030570688698356
Ta1 As1 Pb2,11.641258695820088
Ta1 As1 Ru1,10.541073096824116
Ta1 As2,9.966510324273676
Ta1 As3,9.460041341378489
Ta1 Au1,17.660503544346202
Ta1 Au1 Br1,12.055143065689377
Ta1 B1,13.980922194123986
Ta1 B1 C1,12.353215744315714
Ta1 B2,12.117552130391864
Ta1 B2 Mo1,11.33512335617972
Ta1 B2 Mo3 C2,9.997255160178316
Ta1 B4 W3,14.97926060549776
Ta1 Be1 B1,11.099066690853173
Ta1 Be1 Co2,0.8639961848695746
Ta1 Be1 O3,9.8640512476562
Ta1 Be1 Os2,1.2969811442948984
Ta1 Be1 Rh2,0.8719518474306128
Ta1 Be1 Ru2,11.773136920384356
Ta1 Be2,9.521013723505334
Ta1 Be2 Os1,0.9058700878489196
Ta1 Bi1 Ru1,12.230364992514296
Ta1 C1,11.314126260265343
Ta1 Co1,13.78826387741054
Ta1 Co1 Ni2,12.06853574988546
Ta1 Co1 Sb1,11.295971203299835
Ta1 Co1 Sn2,10.428379731449557
Ta1 Co2,13.025997765009455
Ta1 Co3,12.1987537704166
Ta1 Co6 Mo1,10.874263487239904
Ta1 Cr1 B4,9.058378380698336
Ta1 Cr1 Re2,1.2239084260678552
Ta1 Cr2,11.33718995445492
Ta1 Cr2 Re1,0.9890874827593946
Ta1 Cu1 N2,8.984981468764955
Ta1 Cu1 Rh2,12.818654707261496
Ta1 Cu1 S2,7.8120249023327935
Ta1 Cu3 S4,4.816679744429984
Ta1 Cu3 Se2 S2,5.5632731447166766
Ta1 Cu3 Se3 S1,5.846707643517421
Ta1 Cu3 Se4,6.124709819636831
Ta1 Cu3 Te1 Se2 S1,5.977505436569833
Ta1 Cu3 Te2 Se2,6.420739066765929
Ta1 Cu3 Te4,6.8224851480301805
Ta1 F3,5.462134390793
Ta1 F5,5.924494869246372
Ta1 Fe1 B1,12.430918818323168
Ta1 Fe1 O3,7.5044199147459025
Ta1 Fe1 Ru2,12.301920417058303
Ta1 Fe1 Sb1,10.075638377088277
Ta1 Fe2 Ge1,1.1598862409570403
Ta1 Ga1 Co2,11.5621502246116
Ta1 Ga1 Fe2,11.799447858097016
Ta1 Ga1 Ni2,11.459586366661265
Ta1 Ga1 Ni6,10.557172714176678
Ta1 Ga1 Os2,17.18057957112691
Ta1 Ga1 Pt1,12.756869902732577
Ta1 Ga1 Rh2,1.035239804671412
Ta1 Ga1 Ru2,12.596809377235532
Ta1 Ga1 Tc2,0.9378886254390316
Ta1 Ga3,10.065941076360662
Ta1 Ge1 Rh1,10.447027575572031
Ta1 Ge1 Ru2,1.084677180349899
Ta1 Ge2,10.985472880323936
Ta1 H2,12.9809278862065
Ta1 H4,7.5991013760550175
Ta1 Hg1 S2,7.714299167770317
Ta1 I2 O1,6.29553903654191
Ta1 In1 Ni1,9.886747858679694
Ta1 In1 O3,8.484693137654336
Ta1 In1 Os2,1.3231060894584297
Ta1 In1 Rh2,0.9901005473631364
Ta1 In1 Ru2,12.73522319128369
Ta1 In1 S2,6.985087002731441
Ta1 In1 Se2,7.735205164540862
Ta1 In3 Se4,5.560938428735581
Ta1 Ir3,20.72072233399835
Ta1 Mn1 As1,9.263238302413278
Ta1 Mn1 Ge1,11.417591338211878
Ta1 Mn1 Os2,1.316339690989093
Ta1 Mn1 Re2,1.315975302705769
Ta1 Mn1 Ru2,12.165162357848544
Ta1 Mn1 Si1,10.638329306969558
Ta1 Mn2 Al1,9.781667476676578
Ta1 Mn2 B4,8.94048828388427
Ta1 Mn2 Ga1,0.6979452503139996
Ta1 Mn2 Ge1,11.368250329739114
Ta1 Mn2 Nb1,0.8460186513198901
Ta1 Mn2 O3,8.124305870401185
Ta1 Mn2 Si1,0.7639418329737828
Ta1 Mn2 V1,0.7366699981473097
Ta1 Mo1,13.523283453942348
Ta1 Mo1 C2,11.499783499146304
Ta1 Mo1 N1,12.824274730004865
Ta1 Mo1 S4,5.686341796576728
Ta1 Mo1 W1,15.259852931029323
Ta1 Mo1 W2,1.3542156834360313
Ta1 Mo2 C3,10.5003230315958
Ta1 Mo2 W1,1.1449563745492095
Ta1 N1,11.989891738198038
Ta1 N1 F6,4.308921747891653
Ta1 N1 O1,6.9116380416966425
Ta1 N2,9.6016260952298
Ta1 Nb1,12.407336172495045
Ta1 Nb1 Al6,5.658404401049765
Ta1 Nb1 C1 N1,11.056471488992775
Ta1 Nb1 C2,10.87844869753823
Ta1 Nb1 Mo1,11.755438096378402
Ta1 Nb1 Mo2,1.0336584047475872
Ta1 Nb1 N2,11.454301282777902
Ta1 Nb1 Os2,1.4945913571328786
Ta1 Nb1 Re2,1.461838338693145
Ta1 Nb1 Ru2,1.1544453745909038
Ta1 Nb1 Tc2,11.976583878407984
Ta1 Nb1 V1,10.717135292914776
Ta1 Nb1 W1,14.4636787959693
Ta1 Nb1 W2,1.354753331845695
Ta1 Nb2 Mo1,0.930903041679348
Ta1 Nb2 Re1,0.994027381759433
Ta1 Nb2 W1,1.111873636888746
Ta1 Ni1 B1,12.427446056912062
Ta1 Ni2,12.49427134639884
Ta1 Ni3,11.478490785641336
Ta1 Ni6 Mo1,10.664073866756535
Ta1 O1,14.286177444094696
Ta1 O1 F3,6.06477242959079
Ta1 O2,9.807658236443672
Ta1 O2 F1,6.19730913780293
Ta1 O3,10.783537607850274
Ta1 Os1 Pb1,14.611612067120875
Ta1 Os1 Se4,9.289475288068749
Ta1 Os3,20.409483711045173
Ta1 P1,10.97052655947978
Ta1 P1 Ru1,9.86691644856976
Ta1 P1 S1,8.285174110472338
Ta1 P3,7.742927724249941
Ta1 Pb1 Br1,9.942267782922965
Ta1 Pb1 S2,8.444575628034862
Ta1 Pb1 Se2,9.106194623148289
Ta1 Pb3,12.68904102321371
Ta1 Pd1,11.488162839055924
Ta1 Pd2,13.64678757231886
Ta1 Pd3,13.2885744424072
Ta1 Pt2,19.20366660789256
Ta1 Pt3,19.90951108729077
Ta1 Re1,18.529271914578253
Ta1 Re1 Se4,2.33971009105462
Ta1 Re1 Si1,14.537133687479637
Ta1 Re1 W2,1.5647866345037709
Ta1 Re2 Mo1,1.3751469990678702
Ta1 Rh1 O4,8.326330160059802
Ta1 Rh3,13.660786010367955
Ta1 Ru1,14.523352366055342
Ta1 Ru3,13.32325537285441
Ta1 Ru3 C1,12.35123666097595
Ta1 S1,11.385284042141908
Ta1 S1 N1,9.66960843495534
Ta1 S2,3.560504234656855
Ta1 S2 N1,5.0153966013537445
Ta1 S3,6.999825962422403
Ta1 Sb1 Ru1,11.288527526641358
Ta1 Sb2,10.195171926099407
Ta1 Sb3,9.68072488241658
Ta1 Se1 N1,10.717056403240704
Ta1 Se1 S1,7.420853309436702
Ta1 Se2,4.399236768583485
Ta1 Se6,0.2175663468733581
Ta1 Si1 As1,9.613747025921608
Ta1 Si1 Ge1,10.02754533530561
Ta1 Si1 Ru2,0.9539633948120309
Ta1 Si1 Tc2,0.8821995734952588
Ta1 Si2,8.94092445626548
Ta1 Sn1 O3,8.546452732962305
Ta1 Sn1 Rh1,11.202498820875704
Ta1 Sn1 Ru2,12.794792558179337
Ta1 Sn1 S2,7.082427648675305
Ta1 Sn3,9.625194576612778
Ta1 Tc1,14.258204444681578
Ta1 Tc1 Pb2,13.612025881249368
Ta1 Tc2 Ge1,0.9680045962764146
Ta1 Tc2 Sb1,1.0095952691169867
Ta1 Tc2 Sn1,0.8808738120971263
Ta1 Te1 N1,8.709918436576094
Ta1 Te2,8.698118519239312
Ta1 Ti1,10.746615063570298
Ta1 Ti1 Al1,6.642861375415137
Ta1 Ti1 Al1 C1,7.783641967934159
Ta1 Ti1 Al6,5.074272446057616
Ta1 Ti1 B4,8.473043974943804
Ta1 Ti1 Be4,6.526025257966297
Ta1 Ti1 C1 N1,10.043711301740482
Ta1 Ti1 C2,9.762281015855958
Ta1 Ti1 Fe2,10.320709259253782
Ta1 Ti1 Mn2,10.17393415495855
Ta1 Ti1 Mo2,0.988261061897558
Ta1 Ti1 N2,10.391418066362544
Ta1 Ti1 Nb2,0.8270921878795752
Ta1 Ti1 Ni6,10.024668339802847
Ta1 Ti1 O4,7.050708984897541
Ta1 Ti1 Os2,16.243979914131312
Ta1 Ti1 Re2,15.710756304456943
Ta1 Ti1 Ru2,11.632382394913389
Ta1 Ti1 Se4,6.474556366020447
Ta1 Ti1 Tc2,11.265013265433916
Ta1 Ti1 Te4,7.182026381861874
Ta1 Ti1 W1 C3,11.62655923173488
Ta1 Ti1 W2,1.0746595273603614
Ta1 Ti2 N3,8.36287487838607
Ta1 Ti3,7.633364020731523
Ta1 Tl1 O3,10.57249764782222
Ta1 Tl1 Pt1,15.230459790920248
Ta1 Tl3 S4,6.353805344219704
Ta1 Tl3 Se2 S2,6.668226852877798
Ta1 Tl3 Se4,7.031515967945506
Ta1 V1,11.96040270853948
Ta1 V1 B4,8.894548323198139
Ta1 V1 C1 N1,10.545513726046126
Ta1 V1 C2,10.401966888073838
Ta1 V1 Cu1,11.248731297042443
Ta1 V1 H4,9.227281694350731
Ta1 V1 Mo2,0.9107841597504766
Ta1 V1 N2,10.800097601068018
Ta1 V1 Os2,1.3702591240178064
Ta1 V1 Re2,1.2207360726960057
Ta1 V1 Ru2,1.0050619082937102
Ta1 V1 Tc2,0.8461185510809704
Ta1 V1 W2,1.3276602105522426
Ta1 V2,10.385660894850238
Ta1 V2 Re1,1.0471942826126492
Ta1 V3 N4,8.611789168456347
Ta1 W1,17.659810867661008
Ta1 W1 C2,14.786382904799275
Ta1 W1 Se4,8.303680884247461
Ta1 W3,18.290845529241075
Ta1 Zn1 Co2,11.632965471053692
Ta1 Zn1 Ni2,1.0895188261978377
Ta1 Zn1 Os2,17.12185052294146
Ta1 Zn1 Rh2,12.476473909289776
Ta1 Zn1 Ru2,12.495894994759992
Ta1 Zn3,10.266827567865072
Ta2 Ag1 S4,7.160791761729355
Ta2 Al1 C1,10.183301078045533
Ta2 Al1 Re1,0.6158789308556191
Ta2 B1,14.977232307663993
Ta2 B1 N3,9.544085606136042
Ta2 Be1,13.760917565873743
Ta2 Be2 O5,9.518972925233468
Ta2 C1,13.250082645485946
Ta2 C1 N1,14.515004853335004
Ta2 C1 N3,9.649177759759976
Ta2 C1 S2,8.080862535327947
Ta2 Cd1 Bi1,13.171478196608732
Ta2 Co1,14.931411131757956
Ta2 Co1 Os1,1.015106417276016
Ta2 Co1 Re1,1.5047239856435433
Ta2 Cr1 Fe1,13.42239209839476
Ta2 Cr1 Mo1,1.0806315149335384
Ta2 Cr1 N3,12.321583793877164
Ta2 Cr1 Os1,16.091460520808138
Ta2 Cr1 Re1,1.1483520033767785
Ta2 Cr1 Ru1,13.841976755542222
Ta2 Cr1 Si6,7.686117295295183
Ta2 Cr1 Tc1,0.9586619931241523
Ta2 Cr1 W1,1.1891826263090135
Ta2 Cu1 O6,7.76807812473511
Ta2 Cu1 Os1,1.2988793869508233
Ta2 Cu1 Re1,1.3308857849004363
Ta2 Fe1 Mo1,13.620046055388409
Ta2 Fe1 Os1,16.164723070153947
Ta2 Fe1 Re1,1.471533281033202
Ta2 Fe1 Ru1,1.3289552966811893
Ta2 Fe1 S4,7.952165677742201
Ta2 Fe1 Tc1,1.1167077408631836
Ta2 Fe1 W1,1.271287682589415
Ta2 Ga1 C1,12.751798115402922
Ta2 H1,15.320903203471584
Ta2 I5,4.574195765820895
Ta2 In1 C1,12.853042006618814
Ta2 In1 Cu1 Te4,6.500282380376803
Ta2 In1 S4,6.388133776578001
Ta2 Ir1 W1,1.5710878012507763
Ta2 Mn1 Cr1,1.0663890514413714
Ta2 Mn1 Fe1,1.1029111533438412
Ta2 Mn1 Mo1,1.1399311495923248
Ta2 Mn1 Os1,16.292688302768067
Ta2 Mn1 Re1,1.2300142075455465
Ta2 Mn1 Ru1,1.291633742143774
Ta2 Mn1 Tc1,1.1260384006085775
Ta2 Mn1 V1,0.9185285441708092
Ta2 Mn1 V3,10.73897803530949
Ta2 Mn1 W1,1.1676767843287097
Ta2 Mo1 Ir1,1.4338661998649274
Ta2 Mo1 Os1,16.315493248518685
Ta2 Mo1 Pt1,1.3961910551983363
Ta2 Mo1 Rh1,1.2462423836514491
Ta2 Mo1 Ru1,14.134984352274047
Ta2 Mo1 S6,5.970823522983628
Ta2 Mo1 W1,1.2984198500591453
Ta2 Mo2 O5,10.352491794111229
Ta2 N1,15.274225852144207
Ta2 N3 F1,9.853576291916092
Ta2 N3 O1,9.742208918220165
Ta2 Nb1 Ir1,15.789285355121722
Ta2 Nb1 Mo1,1.1040809788614194
Ta2 Nb1 Os1,15.781759848163906
Ta2 Nb1 Pt1,1.3355762477459696
Ta2 Nb1 Re1,1.3075532981891202
Ta2 Nb1 Rh1,13.593677883040892
Ta2 Nb1 Ru1,13.633754126561016
Ta2 Nb1 Tc1,1.1498651714513464
Ta2 Nb1 W1,1.2697974702654375
Ta2 Ni1,14.78623216926157
Ta2 Ni1 Os1,1.3185102753289082
Ta2 Ni1 S4,7.597020898613433
Ta2 O5,4.240500069122236
Ta2 Os1 Pd1,1.3790093449279224
Ta2 Os1 Rh1,1.4421494931406962
Ta2 Os1 Ru1,1.4840265907725092
Ta2 Os1 W1,18.39478323781784
Ta2 Pd1 S6,5.388079311439807
Ta2 Pd1 Se6,6.811193716819103
Ta2 Pd3 Ru3,13.467780246830763
Ta2 Re1 Ir1,1.6844947917562254
Ta2 Re1 Mo1,16.035174271674116
Ta2 Re1 Ni1,0.9525141446439604
Ta2 Re1 Os1,1.6234777987057103
Ta2 Re1 Pd1,1.3735161612527396
Ta2 Re1 Pt1,1.5473389217351436
Ta2 Re1 Rh1,1.4385085554894117
Ta2 Re1 Ru1,16.59617644136405
Ta2 Re1 Tc1,1.3216622227185435
Ta2 Re1 W1,18.12526771904064
Ta2 Rh1 W1,1.3675343989933368
Ta2 Ru1 W1,16.20812941805435
Ta2 Se1,12.220232609631976
Ta2 Si1,13.2745948473238
Ta2 Si1 As2,9.004332762227735
Ta2 Tc1 Mo1,13.92800356711496
Ta2 Tc1 Os1,1.4495722072698602
Ta2 Tc1 Ru1,1.228588142252908
Ta2 Tc1 W1,16.036825896719588
Ta2 Ti1 Mo1,1.0519880829482136
Ta2 Ti1 N3,10.695312575994672
Ta2 Ti1 Re1,1.113014170626262
Ta2 Ti1 W1,1.2071323709504034
Ta2 V1 C2,12.043969185860636
Ta2 V1 Fe1,1.2422974968303129
Ta2 V1 Ir1,1.3523458494558875
Ta2 V1 Mo1,1.0738205608117206
Ta2 V1 Os1,15.7106511002458
Ta2 V1 Re1,1.2743859180209829
Ta2 V1 Rh1,1.216934369837084
Ta2 V1 Ru1,13.47347659751788
Ta2 V1 Tc1,1.1107993675255172
Ta2 Zn1 Re1,1.2392875343871912
Ta2 Zn1 S4,7.348267451988901
Ta3 Au1,17.016533482000685
Ta3 B4,13.28435247984026
Ta3 Bi1,15.94320610304801
Ta3 C1,15.241774749085849
Ta3 Co2 Mo1,13.826250925818576
Ta3 Cu1,14.858201533016238
Ta3 Ir1,17.86813635820587
Ta3 Mn1 N4,12.74307024788739
Ta3 N1,15.433971747492404
Ta3 Os1,17.929308234979022
Ta3 Pb1,16.04411754704689
Ta3 Pd1,15.311677656359509
Ta3 Pt1,17.41200447596201
Ta3 Re1,17.566632545538077
Ta3 Ru1,15.514565288761728
Ta3 Sb1,14.800719357096618
Ta3 Sn1,14.54767435761192
Ta3 Ti1 B4,11.74561251790181
Ta3 W1,17.1163423141024
Ta4 C3,14.36363066904356
Ta4 Co1 Ni1,14.93623818036501
Ta4 N3,15.19377723768807
Ta4 N5,12.89990701103647
Ta4 O1,15.624655926778711
Ta4 Se1 S1,12.496807830746643
Ta5 As4,11.82907815247098
Ta5 Sb4,12.04459383635046
Tb1,8.119996172618224
Tb1 Ag1,9.0351326844052
Tb1 Ag1 As2,8.275418902986381
Tb1 Ag1 Ge1,8.64431990825617
Tb1 Ag1 Hg2,12.260243272574227
Tb1 Ag1 Pb1,10.304022085368295
Tb1 Ag1 Se2,7.078983917711793
Tb1 Ag1 Sn1,8.418978069757362
Tb1 Ag1 Sn2,8.691028946339735
Tb1 Ag1 Te2,7.162296393575951
Tb1 Ag2,9.408020294477856
Tb1 Ag3,9.441470191642267