Composition,Density
Zn3 Ag1,8.02542385389239
Zn3 Au1,10.407715439539617
Zn3 B1,6.70831639834518
Zn3 C1,6.755078128777609
Zn3 Cd1,7.411742281991307
Zn3 Cd1 O4,5.726244721854209
Zn3 Cd1 S4,4.193195310174079
Zn3 Cd1 Se4,5.153289125402002
Zn3 Co1,8.078174332504346
Zn3 Co1 S4,4.037213153500407
Zn3 Cr1,7.64520069775975
Zn3 Cr1 S4,3.82532835060504
Zn3 Cr1 Se4,4.892344047727683
Zn3 Cr1 Te4,5.274644838818797
Zn3 Cu1,7.693277013350319
Zn3 Fe1 S4,3.945646811793952
Zn3 Ge1,6.866707664221816
Zn3 Hg1,8.835883991558267
Zn3 In1,6.819002787916888
Zn3 Ir1,11.388380283868768
Zn3 N1,6.8155374013231205
Zn3 Ni1,8.02084414519375
Zn3 Os1,11.335476927614131
Zn3 P1,6.004511882432818
Zn3 P1 Br3,4.022751906211369
Zn3 Pd1,8.582254103161604
Zn3 Pt1,11.159680345158757
Zn3 Rh1,8.778304328880207
Zn3 Ru1,8.797160263355957
Zn3 Sb1,6.886685776375195
Zn3 Se1,6.37734580805244
Zn3 Si1,6.10226623229596
Zn3 Sn1,6.711261016643473
Zn4 Te1 O3,5.70516170727181
Zn4 Te3 O1,5.430356085049847
Zn5 Pd3,9.246299194815991
Zn6 Mo1,6.977976971929055
Zn7 Mo1,7.6945063128326
Zn7 Tc1,7.890847518318069
Zr1,2.702927500096316
Zr1 Ag1,8.085385116477651
Zr1 Ag1 Au2,0.9970167776602156
Zr1 Ag1 B1,6.1365148179905065
Zr1 Ag1 Hg2,0.8522131910734714
Zr1 Ag1 Mo1,7.553592658860263
Zr1 Ag2,8.768805852561856
Zr1 Al1,4.961626929465305
Zr1 Al1 Au2,11.495691555628532
Zr1 Al1 Co2,6.969839192516332
Zr1 Al1 Co4,7.619625957958569
Zr1 Al1 Cu1,6.109133829156733
Zr1 Al1 Cu2,6.639306041868166
Zr1 Al1 Fe2,0.5190387262451697
Zr1 Al1 Fe4,7.319026352964514
Zr1 Al1 N2,5.504233676708823
Zr1 Al1 Ni1,5.58728652603998
Zr1 Al1 Ni2,6.799140677848613
Zr1 Al1 O3,5.572820739004825
Zr1 Al1 Pd2,8.143435841764896
Zr1 Al1 Pt1,9.605544612084982
Zr1 Al1 Pt2,11.44573894517251
Zr1 Al1 Rh2,8.407870260654942
Zr1 Al1 Ru2,8.46748867474463
Zr1 Al1 Tc2,0.5929926563563411
Zr1 Al1 W1,7.781616224444203
Zr1 Al1 W4,13.114874382898966
Zr1 Al2 Si1,4.313120370493879
Zr1 Al2 Zn1,5.128280446899471
Zr1 Al3,4.030342340080234
Zr1 Al3 N4,4.876487425606781
Zr1 Al5 Ni2,4.8387248526348365
Zr1 Al6 Mo1,4.439727756244223
Zr1 As1,6.650200618727967
Zr1 As1 Ir1,10.129567120393528
Zr1 As1 Os1,11.71508492279846
Zr1 As1 Rh1,7.205453913231117
Zr1 As1 Ru1,8.835455291988726
Zr1 Au1,12.03516595589188
Zr1 Au2,13.95104689914139
Zr1 Au3,15.017470936785928
Zr1 B1,5.714812389732113
Zr1 B1 C1,6.4748512254828805
Zr1 B1 O3,6.076679151888352
Zr1 B1 Rh3,6.330488159726366
Zr1 B1 Te1,5.61075263238941
Zr1 B2,6.03310523000882
Zr1 B2 Mo3 C2,7.903293861269584
Zr1 B4 Mo1,6.671549551694971
Zr1 B6,3.876498042977305
Zr1 Be1 B1,5.226905515025519
Zr1 Be1 Cd1,5.315370962592859
Zr1 Be1 O3,3.529486201293938
Zr1 Be1 Rh2,0.6581313444931679
Zr1 Be1 Si1,4.837725558684141
Zr1 Be2,4.429202686272893
Zr1 Be2 Pt1,0.443529430540544
Zr1 Be5,3.623393533594746
Zr1 Bi1 Rh1,9.13774591152589
Zr1 Br1,5.386349173186648
Zr1 Br1 N1,4.185906457375889
Zr1 Br1 O1,5.278219655935572
Zr1 Br3,3.5950987852448435
Zr1 C1,5.150549585961192
Zr1 Cd1,6.584947900102033
Zr1 Cd1 Ag2,8.89989587158502
Zr1 Cd1 Au2,12.64002052257875
Zr1 Cd1 Cu2,8.33355496711117
Zr1 Cd1 N2,6.055902709232412
Zr1 Cd1 O3,5.806339458576674
Zr1 Cd1 Pd2,9.548325670914554
Zr1 Cd1 Pt2,1.0685273528255603
Zr1 Cd1 Rh2,9.863861815098147
Zr1 Cd3,8.172109087548849
Zr1 Cl1,4.1319044352272565
Zr1 Cl2,3.8559744373629807
Zr1 Cl3,2.5622243704138405
Zr1 Co1,7.649629559253404
Zr1 Co1 As1,6.283684925876202
Zr1 Co1 Bi1,9.83264367851283
Zr1 Co1 F6,3.2202408271133804
Zr1 Co1 Ni1,8.335784742266263
Zr1 Co1 Sb1,7.141210333744336
Zr1 Co1 Sn1,8.364350332605294
Zr1 Co2,8.422444143379728
Zr1 Co2 N2,7.546669468127396
Zr1 Co2 Si2,6.473515061087692
Zr1 Co2 Sn1,8.703696988582623
Zr1 Co3,8.468671016191193
Zr1 Co3 B2,7.709830135820116
Zr1 Co4 Si1,7.821867034596464
Zr1 Cr1 Cu1,7.638573936265229
Zr1 Cr1 Cu1 S4,4.3870429139867255
Zr1 Cr1 F6,2.9689107553906955
Zr1 Cr1 Fe1,6.586862045228424
Zr1 Cr1 Mo1,7.820169333293518
Zr1 Cr1 Tc2,0.6557684089451955
Zr1 Cr1 W1,10.62591294005191
Zr1 Cr2,7.10910702958636
Zr1 Cu1,7.22875126367436
Zr1 Cu1 Au2,0.9832314230612552
Zr1 Cu1 B1,6.487309831529721
Zr1 Cu1 F6,3.3097127267818425
Zr1 Cu1 Ge1 As1,7.417419094870109
Zr1 Cu1 Ge2,7.458290948580247
Zr1 Cu1 Hg2,11.971905555336598
Zr1 Cu1 Rh2,0.7403748202177675
Zr1 Cu1 Si1 As1,6.538643711325565
Zr1 Cu1 Si1 P1,5.772806954950758
Zr1 Cu1 Si2,5.590178793112922
Zr1 Cu2,7.793587824653846
Zr1 Cu2 Ag1,0.674148870644453
Zr1 Cu2 Au1,1.216872224156963
Zr1 Cu2 Hg1,10.556982962446249
Zr1 Cu2 P2,5.968639149943475
Zr1 Cu3,7.962484002987549
Zr1 Cu4 Ag1,8.764759435710742
Zr1 Cu5,8.493079274527
Zr1 F4,0.7919624286957293
Zr1 Fe1 Co1,8.015116072131702
Zr1 Fe1 F6,3.129158092997802
Zr1 Fe1 Sb1,7.564337021314336
Zr1 Fe1 Se1,7.495195377253093
Zr1 Fe1 Te1,7.947743287241926
Zr1 Fe2,7.692951349068744
Zr1 Fe2 N2,7.358491673606305
Zr1 Fe2 Si2,6.214693672585031
Zr1 Fe4 Si1,7.546976541652762
Zr1 Ga1,6.856706575798078
Zr1 Ga1 Au1,10.46106850967358
Zr1 Ga1 Co1,7.8159737005562
Zr1 Ga1 Co2,0.6854709246028909
Zr1 Ga1 Cu1,7.273599952741475
Zr1 Ga1 Cu2,0.6443129941474444
Zr1 Ga1 Ir2,1.0757472724649255
Zr1 Ga1 Ni1,7.66597772506586
Zr1 Ga1 Ni2,8.059961670929592
Zr1 Ga1 Pd2,9.158029828706503
Zr1 Ga1 Pt1,10.935313564613775
Zr1 Ga1 Rh1,8.464621263316422
Zr1 Ga1 Rh2,0.748566793754354
Zr1 Ga1 Ru2,0.7519983667844804
Zr1 Ga2,7.049950110551865
Zr1 Ga2 N2,5.523285923783183
Zr1 Ga3,7.060967035497371
Zr1 Ga5 Co1,7.240492606036676
Zr1 Ge1,7.144632229558943
Zr1 Ge1 N2,5.195217493154172
Zr1 Ge1 Os1,11.61670308235284
Zr1 Ge1 Pt1,9.34374529249376
Zr1 Ge1 Rh2,0.7799059673754161
Zr1 Ge1 Ru2,9.713002976249197
Zr1 Ge1 S1,6.003315238411415
Zr1 Ge1 Sb1,7.3615026843153615
Zr1 Ge1 Se1,6.86766113902137
Zr1 Ge1 Te1,7.1176451258794895
Zr1 Ge2,7.04939437881397
Zr1 H1,5.657335180940566
Zr1 H1 Br1,5.419104206522699
Zr1 H1 Cl1,4.3405667543924285
Zr1 H2,5.5359062197996485
Zr1 H3,5.123156846076667
Zr1 Hg1,11.18802734558798
Zr1 Hg1 Au2,1.106690792306335
Zr1 Hg1 O3,7.698366167909752
Zr1 Hg3,12.975510383240808
Zr1 I1 N1,4.967871238532102
Zr1 I3,4.273364228009672
Zr1 In1,7.363629503293501
Zr1 In1 Ag2,0.627639778049726
Zr1 In1 Au1,9.634347776679776
Zr1 In1 Au2,11.826609167877818
Zr1 In1 Co2,0.7398299085910345
Zr1 In1 Cu2,8.366624504598052
Zr1 In1 N2,6.091762406964211
Zr1 In1 Ni2,8.214062969551978
Zr1 In1 Ni4,9.032171553748142
Zr1 In1 Pd2,9.209364810073096
Zr1 In1 Pt2,12.959531336669237
Zr1 In1 Rh2,9.845258225402658
Zr1 In1 Ru2,0.8109760535259312
Zr1 In3,7.857914636292117
Zr1 Ir1,12.595899561828572
Zr1 Ir2,15.359650468177955
Zr1 Ir3,17.491333437637753
Zr1 Mn1 Cu2 S4,4.186162590918709
Zr1 Mn1 Cu2 Se4,5.450137450456993
Zr1 Mn1 F6,2.950322277498775
Zr1 Mn1 N2,7.1581120489411
Zr1 Mn1 Ni1,7.659631549281037
Zr1 Mn1 Rh2,0.7101043288232245
Zr1 Mn2,7.670876059284066
Zr1 Mn3,7.256851377441457
Zr1 Mo1,8.299297429598466
Zr1 Mo1 C2,7.522067185372678
Zr1 Mo1 P1,7.477221656933684
Zr1 Mo1 W1,10.984637007423514
Zr1 Mo2,8.470043894172937
Zr1 Mo3,8.921568459941396
Zr1 N1,5.622791936538272
Zr1 N1 Cl1,3.700826534882423
Zr1 N2,4.528320181269826
Zr1 Nb1,7.481256512512194
Zr1 Nb1 Al6,4.253657932340627
Zr1 Nb1 B2,6.799946823092085
Zr1 Nb1 B4,6.398360948433732
Zr1 Nb1 C1 N1,7.292846886438365
Zr1 Nb1 C2,7.07624653587732
Zr1 Nb1 Co4,8.796204028255318
Zr1 Nb1 Cr4,7.419448210767496
Zr1 Nb1 Fe4,8.073855994526753
Zr1 Nb1 N2,7.569307961010586
Zr1 Nb1 Re2,1.0416725023379072
Zr1 Nb1 Ru2,0.83110175281714
Zr1 Nb1 Tc2,9.255032112200006
Zr1 Nb2 Mo2,8.664480032121462
Zr1 Nb2 V1 C4,6.947429317496586
Zr1 Nb3 C4,7.332129840210377
Zr1 Ni1,7.396409208909017
Zr1 Ni1 Bi1,9.570541724600924
Zr1 Ni1 F6,3.285047672498348
Zr1 Ni1 Ge1,6.254876127803311
Zr1 Ni1 H1,7.227712322158143
Zr1 Ni1 O3,6.538318643506497
Zr1 Ni1 P1,6.469448323842921
Zr1 Ni1 P2,6.028017977411449
Zr1 Ni1 Sn1,6.596000898861215
Zr1 Ni2,8.190258282626822
Zr1 Ni2 P2,6.850455324682755
Zr1 Ni2 Sb1,8.502891843827832
Zr1 Ni2 Sn1,8.619194972967739
Zr1 Ni3,8.426584523462969
Zr1 Ni4 O1,7.724360438594108
Zr1 Ni4 Sn1,8.884830501653575
Zr1 Ni5,8.519311052653425
Zr1 O1,5.60736845212293
Zr1 O2,4.410952023543007
Zr1 Os1,13.118862448190251
Zr1 Os1 O3,9.038334595947893
Zr1 Os3,17.218005815894355
Zr1 P1,5.396878292882698
Zr1 P1 Os1,11.094242719121317
Zr1 P1 Ru1,7.991713996799715
Zr1 P3,4.750978834830825
Zr1 Pb1,9.41221911349801
Zr1 Pb1 N2,7.994145868694213
Zr1 Pb1 O3,7.533522789829773
Zr1 Pd1,8.472656953462202
Zr1 Pd1 Au2,1.0134800495317515
Zr1 Pd1 F6,3.78781940779545
Zr1 Pd2,9.553603912923345
Zr1 Pd3,10.34076086987537
Zr1 Pt1,12.193182685649608
Zr1 Pt1 Pb1,10.949224467993146
Zr1 Pt3,16.83104057865934
Zr1 Pt8,18.86269815171574
Zr1 Re1 Si1,10.373753670987517
Zr1 Rh1,8.702258262059981
Zr1 Rh3,10.586539284709414
Zr1 Ru1,9.02937695427734
Zr1 Ru3,10.422780866850673
Zr1 Ru3 C1,9.774537527634694
Zr1 S1,5.636888813277663
Zr1 S1 O1,5.483176193130928
Zr1 S2,3.307469232923464
Zr1 S2 N1,2.8813517903928294
Zr1 S3,3.3773767276362507
Zr1 Sb1,7.671287524072472
Zr1 Sb1 Rh1,7.558281283357208
Zr1 Sb1 Ru1,8.12997779321834
Zr1 Sb1 Ru2,0.8351067720041707
Zr1 Sb3,7.435956356558036
Zr1 Sc1,4.737454893620727
Zr1 Sc1 Au2,0.8927993209623298
Zr1 Sc1 B4,4.708785955963056
Zr1 Sc1 Cd2,0.4442632444010858
Zr1 Sc1 Co2,0.4085592365994323
Zr1 Sc1 Cu2,0.6266393859995981
Zr1 Sc1 Fe4,6.896148340675168
Zr1 Sc1 Ir2,1.0357805124264248
Zr1 Sc1 Mn1 Ni3,7.148306702080166
Zr1 Sc1 Ni2 Sn2,6.938025259936295
Zr1 Sc1 Os2,12.42090979749963
Zr1 Sc1 Pd2,0.6621877708929862
Zr1 Sc1 Pt2,1.0684795550693564
Zr1 Sc1 Rh2,0.7109846844970329
Zr1 Sc1 Ru2,0.6784473261950296
Zr1 Sc1 Tc2,0.6256042230382435
Zr1 Sc1 Tl2,0.6683324332583988
Zr1 Sc1 V1 Ni3,6.878933292887389
Zr1 Sc1 Zn2,0.4340700584923168
Zr1 Sc2,4.159365759536194
Zr1 Sc2 Tl1,0.5235526506816851
Zr1 Se1,5.693678307093391
Zr1 Se1 O1,6.72270897069936
Zr1 Se1 S1,4.391601687294865
Zr1 Se2,4.935219019109782
Zr1 Se3,5.205999364554638
Zr1 Si1,5.24758069081229
Zr1 Si1 O1,5.545434285899893
Zr1 Si1 O3,5.650489094658311
Zr1 Si1 Pd1,6.559243715716086
Zr1 Si1 Pt1,9.010956815694524
Zr1 Si1 Ru1,7.550997125152835
Zr1 Si1 Ru2,0.701742769024912
Zr1 Si1 S1,4.86070473929277
Zr1 Si1 Se1,5.801912501348617
Zr1 Si1 Te1,6.062739038952948
Zr1 Si1 W4,13.230350722290876
Zr1 Si2,4.846510560627015
Zr1 Si2 Ni2,6.370889091945608
Zr1 Sn1,6.994826653746834
Zr1 Sn1 Ir1,11.339135518027406
Zr1 Sn1 N2,6.132014958520065
Zr1 Sn1 Pd1,7.610024613589718
Zr1 Sn1 Pd2,9.553162939982036
Zr1 Sn1 Pt1,10.155428634479078
Zr1 Sn1 Rh1,8.935909015821215
Zr1 Sn1 Rh2,9.827144480276536
Zr1 Sn1 Ru2,10.01726059371977
Zr1 Sn1 Te1,7.535139520070547
Zr1 Sn2,7.851905909633689
Zr1 Sn3,7.273252764311106
Zr1 Ta1 B4,8.943102834159832
Zr1 Ta1 C1 N1,10.441562308478373
Zr1 Ta1 C2,10.1507752960185
Zr1 Ta1 Co4,10.58467972319629
Zr1 Ta1 Cr4,9.123788581152352
Zr1 Ta1 Mn2,0.7552515675089287
Zr1 Ta1 N1 O1,9.4472404471769
Zr1 Ta1 N2,10.84329059868264
Zr1 Ta1 Os2,1.256891994300372
Zr1 Ta1 Re2,1.1691841351235106
Zr1 Ta1 Ru2,1.024567609668096
Zr1 Ta1 Tc2,0.9209068996670422
Zr1 Ta1 Te4,7.041395284103146
Zr1 Ta2 N3,11.398720413687348
Zr1 Tc1 Cl1,6.946312160005819
Zr1 Tc2 W1,11.857923323758712
Zr1 Te1,7.31570065291428
Zr1 Te1 Se1,6.405081463971213
Zr1 Te2,5.981655114979786
Zr1 Te3,6.430112720356544
Zr1 Ti1,5.607526945970661
Zr1 Ti1 As1,6.617444498932839
Zr1 Ti1 Au2,0.8871456724631573
Zr1 Ti1 B4,5.33302195479853
Zr1 Ti1 C1 N1,6.036229235318081
Zr1 Ti1 C2,5.747146739012068
Zr1 Ti1 Co4,7.981695275057255
Zr1 Ti1 Cr4,6.676534413738854
Zr1 Ti1 Cu1,6.438095752391159
Zr1 Ti1 F6,2.994313090540593
Zr1 Ti1 Mo4,8.109362865146283
Zr1 Ti1 N2,6.236003580857662
Zr1 Ti1 Nb1,6.566378076594382
Zr1 Ti1 Ni2,6.909027539455949
Zr1 Ti1 Ni2 H2,6.475092948967037
Zr1 Ti1 O3,5.405552075029354
Zr1 Ti1 S4,3.270213414528334
Zr1 Ti1 S6,3.323398106193182
Zr1 Ti1 Se4,4.817914898308259
Zr1 Ti1 Tc2,0.6782477405088086
Zr1 Ti1 Te4,5.969755031620622
Zr1 Ti1 W4,13.32249790050462
Zr1 Ti1 Zn2,0.4603223426568718
Zr1 Ti2,5.178666023283811
Zr1 Ti2 Al1,4.862256923297809
Zr1 Ti2 Ga4,6.540822990472594
Zr1 Ti2 O1,5.357080130139805
Zr1 Ti3,5.1368607488850575
Zr1 Ti3 As2,6.245200637996397
Zr1 Tl1 O3,7.632104481985796
Zr1 V1 Cr1,6.7458767546980685
Zr1 V1 F6,2.976044953277569
Zr1 V1 Ge1,6.945396775110266
Zr1 V1 Mo1,7.501958641765648
Zr1 V1 Si1,5.72737094877666
Zr1 V1 Tc2,0.7241978656797181
Zr1 V1 W1,10.21384260660108
Zr1 V2,6.4334589517749015
Zr1 V2 Ga4,7.144804763138019
Zr1 W1 C2,10.647985325421931
Zr1 W2,13.52058818410364
Zr1 Zn1,6.225003484884548
Zr1 Zn1 Au2,0.9135377016212436
Zr1 Zn1 Co2,0.5709740111517819
Zr1 Zn1 Cu2,7.579705459416815
Zr1 Zn1 F6,3.290113368977309
Zr1 Zn1 Ge1,7.149064291255377
Zr1 Zn1 Ir2,1.0584929568623187
Zr1 Zn1 N2,6.050268580387232
Zr1 Zn1 Ni2,7.94007162046587
Zr1 Zn1 Ni4,8.345601226664648
Zr1 Zn1 O3,4.7781155825131005
Zr1 Zn1 Pd2,0.6978186084864356
Zr1 Zn1 Pt2,13.321906165834248
Zr1 Zn1 Rh2,9.475241563545037
Zr1 Zn2,7.229957651117005
Zr1 Zn2 Au1,0.7349148741288638
Zr1 Zn2 Ge1,7.124487054428694
Zr1 Zn2 Pd1,0.5496273889405974
Zr1 Zn2 Pt1,0.6736024184764426
Zr1 Zn3,7.245114336711285
Zr2 Ag1,7.428326790577842
Zr2 Al1,5.486264856387479
Zr2 Al1 C1,5.23895326195483
Zr2 Al1 Fe3,6.97666914090075
Zr2 Al1 N1,5.580413330073779
Zr2 Al1 Si1,5.221706495354712
Zr2 Al1 Tc1,0.5547532227101187
Zr2 Al3 Co1,5.3636432372201615
Zr2 Al3 Cr1,5.067026938677642
Zr2 Al3 Ni1,5.346219804729653
Zr2 Al3 Zn1,5.193254881870316
Zr2 As3 S1,6.358265418542679
Zr2 As3 Se1,6.760172797291786
Zr2 Au1,9.78663226881268
Zr2 B1 Ir6,16.485268814161586
Zr2 B1 N1,6.389785993176241
Zr2 Be1 Tc1,0.5345126920575889
Zr2 C1 N1,6.77939044049964
Zr2 C1 S1,6.013909101308596
Zr2 Cd1,7.235683328550981
Zr2 Cd1 Hg1,0.6836908045183916
Zr2 Cd1 Tc1,0.6341151189113798
Zr2 Co1,7.17077101131263
Zr2 Co1 Cu1,0.49816024249544
Zr2 Co1 Cu1 Sn2,7.8922064339261455
Zr2 Co1 Ir1,0.9214662736500766
Zr2 Co1 Mo3,8.40113767581237
Zr2 Co1 Ni1,7.425828160448571
Zr2 Co1 Os1,10.345310813528318
Zr2 Co1 P1,6.728849980115735
Zr2 Co1 Pt1,0.8328743690284299
Zr2 Co1 Re1,0.9066938663028924
Zr2 Co1 Rh1,0.6080430231847549
Zr2 Co1 Ru1,0.506628466039549
Zr2 Co1 S4,4.51708382556486
Zr2 Co1 Tc1,8.160734474250706
Zr2 Co3 Mo1,8.409621332273778
Zr2 Cr1 Co3,8.025270639775352
Zr2 Cr1 N3,6.775571911420935
Zr2 Cr1 Tc1,0.5778842635803584
Zr2 Cu1,6.932798834164342
Zr2 Cu1 H2,6.580649609238988
Zr2 Cu1 Ir1,0.8595171855011868
Zr2 Cu1 Os1,10.20714238888059
Zr2 Cu1 Pt1,0.8234179078024636
Zr2 Cu1 Re1,0.8263783024986342
Zr2 Cu1 Rh1,0.6814483628636825
Zr2 Cu1 Ru1,0.6897072438267939
Zr2 Cu1 Sb3,7.565332191217859
Zr2 Cu1 Si1 P2,4.566547736796816
Zr2 Cu1 Sn3,0.3200610908596486
Zr2 Cu1 Tc1,0.647572310945324
Zr2 Cu3 Sb1,6.5269570003031365
Zr2 Cu3 Sb3,7.839893074633494
Zr2 Fe1,7.00133973662212
Zr2 Fe1 Co1,0.5937389436932989
Zr2 Fe1 Co3,8.060751486066145
Zr2 Fe1 Os1,0.8653451470293604
Zr2 Fe1 Pt1,0.8302022368271478
Zr2 Fe1 Ru1,0.7902012951207746
Zr2 Fe1 S4,4.360012205007261
Zr2 Fe1 Tc1,0.6939003265221457
Zr2 Ga1,6.788351328429248
Zr2 Ga1 Cu1,0.5727572567778455
Zr2 Ga1 Tc1,0.6447884693490014
Zr2 Ga3 Co1,7.366506179633963
Zr2 Ga3 Cu1,7.341306154854711
Zr2 Ga3 Ni1,7.364256655756891
Zr2 Ge1 Sb2,6.232145198170295
Zr2 H1 C1,6.061345498222944
Zr2 H1 N2 Cl2,4.050953338414059
Zr2 H2 Pd1,7.39308401287543
Zr2 H3 Pd1,7.034862497566257
Zr2 Hg1 Au1,0.8572208183772435
Zr2 In1 Ag1,0.5636263485048583
Zr2 In1 C1,6.89276096104965
Zr2 In1 N1,7.274177776221645
Zr2 In1 Tc1,0.7431680505985789
Zr2 Ir1,10.058132932088222
Zr2 Ir1 Au1,0.9946435824047438
Zr2 Ir1 Pd1,0.9101151018801696
Zr2 Ir1 Rh1,0.9931405000789528
Zr2 Mn1 Fe3,7.605015488681822
Zr2 Mn1 Os1,0.8719666861443328
Zr2 Mn1 Tc1,0.6103083324325712
Zr2 Mo1 Ir1,0.9405436872233014
Zr2 Mo1 Pd1,0.7390634608553559
Zr2 Mo1 Pt1,0.8630097723308455
Zr2 N1,6.644608678144619
Zr2 Nb1 Mo1 C4,7.275531693038346
Zr2 Nb1 Pt1,0.871163167152706
Zr2 Ni1,7.189329355994663
Zr2 Ni1 P1,6.691112011915929
Zr2 Ni1 S4,4.4837256735473225
Zr2 Ni1 Se4,6.313055946675389
Zr2 Ni7,8.441842565039996
Zr2 O1,5.683818024774703
Zr2 Os1 Pd1,0.9133998277518556
Zr2 Os1 Rh1,0.9655318295588736
Zr2 Os1 Ru1,11.071510015502977
Zr2 P1 S2,3.84170262804656
Zr2 P3 S1,4.988721788319836
Zr2 Pb1 C1,8.82933379926237
Zr2 Pd1,7.845685271874635
Zr2 Pd1 Au1,0.8217355490438394
Zr2 Pd1 Pt1,0.9055290264037418
Zr2 Pd3 Rh3,10.458317376607638
Zr2 Pt1 Au1,0.8672549497268361
Zr2 Pt1 Rh1,0.9135803640188698
Zr2 Re1 Ir1,1.109468418599007
Zr2 Re1 Pd1,0.9270792927656638
Zr2 Re1 Pt1,1.034705928515051
Zr2 Re1 Rh1,0.9553750788572762
Zr2 Re1 Tc1,0.9248444738122674
Zr2 Rh1,7.817083063733077
Zr2 Ru1 Rh1,0.8298352756047692
Zr2 S1 N2,5.411710713827813
Zr2 S1 O3,5.298143379164412
Zr2 S2 O1,3.664261596943863
Zr2 Sb1,7.373274835297653
Zr2 Sb1 P1,6.490311528807154
Zr2 Sb3 Pd1,7.921379201114119
Zr2 Sc1 Tc1,0.4771900418557759
Zr2 Se1 N2,6.1198223530196
Zr2 Se3 S3,4.429951755928294
Zr2 Si1,5.972090741082197
Zr2 Si1 O2,3.4593714211444886
Zr2 Si1 S2,2.8050254223311453
Zr2 Si1 Se2,4.932254816588068
Zr2 Si1 Te2,5.485355521555922
Zr2 Si1 Te2 As1,6.203738281679857
Zr2 Si2 O5,5.84929658709994
Zr2 Sn1,7.3020757300921
Zr2 Sn1 C1,7.123122095952327
Zr2 Ta1 N3,8.641000941278419
Zr2 Tc1 Ag1,0.6563684560000945
Zr2 Tc1 Au1,0.8387557757111946
Zr2 Tc1 Ir1,0.9578558166682256
Zr2 Tc1 Mo1,0.7372717692086417
Zr2 Tc1 Ni1,0.6734112757460247
Zr2 Tc1 Os1,0.9380733728856544
Zr2 Tc1 Pd1,8.74458669618176
Zr2 Tc1 Pt1,0.9509972960478
Zr2 Tc1 Rh1,8.848605984712282
Zr2 Tc1 Ru1,0.7763979426445704
Zr2 Te2 P1,5.957328312796735
Zr2 Ti1 Al1,5.298786579795322
Zr2 Tl1 C1,8.783870404555563
Zr2 Tl1 Tc1,0.4947983915758999
Zr2 V1 Co3,7.864063950013027
Zr2 V1 Ni3,7.777543745550218
Zr2 V3 Fe1,6.763800959750897
Zr2 Zn1,6.643400169254138
Zr2 Zn1 Cd1,0.5048527433848427
Zr2 Zn1 Cu1,0.540539176874299
Zr2 Zn1 Pt1,0.7650265797025079
Zr2 Zn1 Tc1,0.6171030618261684
Zr2 Zn3 Ga3,7.1823317447437
Zr3 Ag1,7.354551123047299
Zr3 Al1,5.885599621244517
Zr3 Al1 N4,6.3838827733111385
Zr3 Au1,9.202326489456334
Zr3 Be1,5.9512995406259535
Zr3 Bi1,8.598450752744528
Zr3 Br1,6.568171469149164
Zr3 C1,6.784971506667596
Zr3 Cd1,7.142912918551698
Zr3 Cd2,0.2742990602213149
Zr3 Cl1,5.89740107265786
Zr3 Co1,6.915075692701918
Zr3 Cu1,6.986658843223531
Zr3 Cu4 Ge2,7.700253219182197
Zr3 Cu4 Si2,6.883905229038902
Zr3 Fe1,6.8088045429079305
Zr3 Ga1,6.8442776382572
Zr3 Ge1,6.977543694739511
Zr3 H1 C2,6.324162515348139
Zr3 Hg1,8.921390035965816
Zr3 I1,7.37902583683786
Zr3 In1,7.182073164977955
Zr3 Mn1,6.488144894458336
Zr3 N1,6.529432315423566
Zr3 N4,6.199148223698112
Zr3 Nb1 C4,6.773818677076947
Zr3 Ni1,7.07812709883652
Zr3 O1,6.592175329787728
Zr3 P1 O2,6.462759727730013
Zr3 Pb1,8.527675088724052
Zr3 Pt1,9.447990671889906
Zr3 Rh1,7.663997195420059
Zr3 S1,6.513568106794313
Zr3 S2,5.510825105564115
Zr3 S4,4.810294396736151
Zr3 Sb1,7.358430739505846
Zr3 Sc1,5.604938365848385
Zr3 Se1,7.067678837826774
Zr3 Se2,6.578110750359142
Zr3 Se4,6.155612698813158
Zr3 Si1,6.220478137182519
Zr3 Sn1,7.179322607983515
Zr3 Sn4 Sb2,7.924888237671013
Zr3 Ta1,8.511116474236113
Zr3 Te2,6.67536279565575
Zr3 Ti1 Cu2,6.653058099399072
Zr3 Ti3 P2,5.280198510693239
Zr3 Tl1,8.763011739851516
Zr3 V1,6.30284427387328
Zr3 Zn1,6.744067750221156
Zr4 Al3,5.301739040406556
Zr4 B1 N3,6.766313729906974
Zr4 Br4 O1,5.249027719885068
Zr4 C1 N3,6.93700746105928
Zr4 C3 N1,6.625262880787542
Zr4 Co1 Ni1,7.126495060084947
Zr4 Cu1 Ni1,7.152902787805489
Zr4 Fe1 Co1,7.116443697866999
Zr4 Fe1 Ni1,7.137405118353338
Zr4 Pd1,7.292877921485632
Zr4 S3 N2,5.209981970815563
Zr5 Si3,5.216488129778483
Zr5 Sn1,6.91090135192615
Zr5 Te4,7.00234343450799
Zr6 Al2 Co1,5.999277919565392
Zr6 Al2 Fe1,5.979508707881815
Zr6 Al2 Ni1,5.959994103063383
Zr6 Co1 As2,7.117220750596348
Zr6 Co1 Bi2,8.43603433837094
Zr6 Co1 Sb2,7.321690053064711
Zr6 Co1 Sn2,7.218725401605529
Zr6 Co1 Te2,7.473302093323091
Zr6 Co2 O1,6.640619773440262
Zr6 Cu1 Bi2,8.326959664892836
Zr6 Fe1 Bi2,8.411038593182363
Zr6 Fe1 Sb2,7.276886405790679
Zr6 Fe1 Sn2,7.169508771751659
Zr6 Fe1 Te2,7.415098832556212
Zr6 Fe2 O1,6.42125947364254
Zr6 Ga2 Co1,6.867478882738192
Zr6 Ga2 Fe1,6.818879077656145
Zr6 Ga2 Ni1,6.841927328479784
Zr6 Mn1 Bi2,8.316735541580774
Zr6 Mn1 Te2,7.321212941237042
Zr6 Ni1 Bi2,8.389188466195241
Zr6 Ni1 Sb2,7.237860162497711
Zr6 Ni1 Sn2,7.111301134459355
Zr6 Ni1 Te2,7.448815927830809
Zr6 Ni2 O1,6.988931484862763
Zr6 P2 O1,6.419254649560736
Zr6 Sb2 Pt1,8.182856818135946
Zr6 Te2 Pt1,8.294572822722126
Zr6 Te2 Ru1,7.607091673502145