Composition,Density
Pm2 Ag1 Ir1,10.388279896555748
Pm2 Ag1 Os1,10.537262472503368
Pm2 Ag1 Pt1,10.135204813868478
Pm2 Ag1 Rh1,8.737872508597984
Pm2 Ag1 Ru1,8.839739436144095
Pm2 Ag1 Sn1,7.829806251374931
Pm2 Al1 Cd1,6.6207246518188985
Pm2 Al1 Ga1,6.377833872801292
Pm2 Al1 In1,6.276298413464652
Pm2 Al1 Zn1,6.317379744204693
Pm2 Cd1 Ga1,7.393798459380359
Pm2 Cd1 Ge1,7.578817499935602
Pm2 Cd1 Hg1,8.944680149026379
Pm2 Cd1 In1,7.5007607359867166
Pm2 Cd1 Pb1,8.716079218799177
Pm2 Cd1 Si1,7.004516809836836
Pm2 Cd1 Sn1,7.689585592736544
Pm2 Co1 Cu1,8.085321758027296
Pm2 Co1 Ir1,10.515720809373237
Pm2 Co1 Ni1,8.371164367525378
Pm2 Co1 Ru1,8.893287667530231
Pm2 Cu1 Au1,9.466655271296014
Pm2 Cu1 Ge1,7.535120400385369
Pm2 Cu1 Ir1,10.354597896750828
Pm2 Cu1 Ni1,7.956145314778309
Pm2 Cu1 Os1,10.358951643465764
Pm2 Cu1 Pd1,8.294730801498298
Pm2 Cu1 Pt1,9.970521944647777
Pm2 Cu1 Rh1,8.526402196825215
Pm2 Cu1 Ru1,8.86399590893081
Pm2 Cu1 Si1,6.887681803096617
Pm2 Cu1 Sn1,7.55071169383416
Pm2 Ga1 Ag1,7.557181219169192
Pm2 Ga1 Cu1,7.33783750886184
Pm2 Ga1 Hg1,8.742128253414329
Pm2 Ga1 Ru1,8.29496491398239
Pm2 Ga1 Sn1,7.353927315991417
Pm2 Ge1 Au1,9.253364188077366
Pm2 Ge1 Pd1,8.053391133502743
Pm2 Hg1 Ge1,8.988876902881174
Pm2 In1 Ag1,7.669247410654496
Pm2 In1 Hg1,8.805055867425795
Pm2 In1 Sn1,7.562160465508273
Pm2 Ir1 Au1,12.018848123980847
Pm2 Ir1 Pd1,10.87833687028526
Pm2 Ir1 Pt1,12.50118156742854
Pm2 Ir1 Rh1,11.089529936746688
Pm2 Ir1 Ru1,11.199508933966433
Pm2 Mg1,5.609174414898998
Pm2 Mg1 Al1,5.289156782773553
Pm2 Mg1 Cd1,6.225642677941717
Pm2 Mg1 Ga1,6.059818737643923
Pm2 Mg1 Ge1,6.226969292994795
Pm2 Mg1 Ru1,7.096431865575832
Pm2 Mg1 Si1,5.67839240943935
Pm2 Mg1 Sn1,6.394556272944828
Pm2 Mg1 Tl1,7.425298751592542
Pm2 Ni1 Ge1,7.487288240094228
Pm2 Ni1 Ir1,10.508400650639343
Pm2 Ni1 Pd1,8.448570377027327
Pm2 Ni1 Pt1,10.14281211607091
Pm2 Ni1 Rh1,8.819944070041013
Pm2 Ni1 Ru1,8.81416293542294
Pm2 O3,7.338736749524387
Pm2 Pd1 Au1,10.126293329827323
Pm2 Pd1 Pt1,10.559951977790483
Pm2 Pd1 Rh1,9.167853102682225
Pm2 Pd1 Ru1,9.267828106201812
Pm2 Pt1 Au1,11.753461090829385
Pm2 Pt1 Rh1,10.83767327843974
Pm2 Ru1 Au1,10.50680275812092
Pm2 Ru1 Pt1,10.944967173493469
Pm2 Ru1 Rh1,9.50445866293732
Pm2 Si1 Ag1,7.180231749220376
Pm2 Si1 Au1,8.636654452593719
Pm2 Si1 Hg1,8.448343393497838
Pm2 Si1 Ni1,6.959134934268326
Pm2 Si1 Pd1,7.418057227163071
Pm2 Si1 Pt1,8.951458455718027
Pm2 Sn1 Au1,9.247250137317062
Pm2 Sn1 Hg1,8.986154341029824
Pm2 Sn1 Pd1,8.1219252045492
Pm2 Tl1 Ag1,8.934718498810748
Pm2 Tl1 Cd1,8.720446897690271
Pm2 Tl1 Hg1,10.046218501086669
Pm2 Tl1 Sn1,8.746210731938218
Pm2 Tl1 Zn1,8.51585208850831
Pm2 Zn1 Ag1,7.543661194331264
Pm2 Zn1 Ga1,7.116217282722454
Pm2 Zn1 Ge1,7.325382029857714
Pm2 Zn1 Hg1,8.746798888417079
Pm2 Zn1 In1,7.233412622769999
Pm2 Zn1 Ir1,9.910159596243272
Pm2 Zn1 Os1,9.963573720495894
Pm2 Zn1 Pb1,8.491869122473922
Pm2 Zn1 Pt1,9.622880094865309
Pm2 Zn1 Rh1,8.207958735090015
Pm2 Zn1 Ru1,8.311207259424759
Pm2 Zn1 Si1,6.719228652467288
Pm2 Zn1 Sn1,7.387089115062247
Pm3 Ag1,7.681297012934772
Pm3 Al1,6.59181077557887
Pm3 Au1,9.262289929030311
Pm3 Cd1,7.418438469802022
Pm3 Cr1,6.933651668558786
Pm3 Cu1,7.486253450492518
Pm3 Dy1,7.248282385428864
Pm3 Er1,7.363988458640579
Pm3 Eu1,6.829530956846344
Pm3 Ga1,7.42766642289804
Pm3 Gd1,7.198992859166278
Pm3 Ge1,7.58483209260456
Pm3 Hf1,8.285077518061799
Pm3 Hg1,8.798343090340577
Pm3 Ho1,7.285203606227088
Pm3 I1,7.19325870955959
Pm3 Mg1,6.075261056455411
Pm3 Nd1,6.851538893557198
Pm3 Pb1,8.620952455235356
Pm3 Pd1,8.132201488273548
Pm3 Pr1,6.774152001364141
Pm3 Sc1,6.177100236111544
Pm3 Si1,7.168426516947686
Pm3 Sm1,7.008738253100916
Pm3 Sn1,7.657396226849146
Pm3 Ti1,6.820204382893518
Pm3 Tl1,8.659360466106772
Pm3 Tm1,7.393333911445458
Pm3 Y1,6.309987940475717
Pm3 Zn1,7.272721386923515
Pm3 Zr1,6.961098882860649
Pm5 Mg1,6.302499397192775
Pr1,6.388138121383007
Pr1 Ag1,7.54977858514417
Pr1 Ag1 Au2,11.773613937908625
Pr1 Ag1 Ge1,7.568907902354646
Pr1 Ag1 Hg2,11.113100902207393
Pr1 Ag1 Pb1,9.27032643316794
Pr1 Ag1 Sb2,7.737249579249487
Pr1 Ag1 Sn1,7.775359810704634
Pr1 Ag2,8.036580861777246
Pr1 Ag2 Ge2,7.938568840663752
Pr1 Al1,5.270673009531453
Pr1 Al1 Co4,7.395896822198276
Pr1 Al1 Cu1,5.264837051582245
Pr1 Al1 Cu4,7.037032930351082
Pr1 Al1 Ge1,5.828441813974489
Pr1 Al1 H6,3.82729588087928
Pr1 Al1 Ni1,6.375129954188438
Pr1 Al1 Ni4,7.613186009622162
Pr1 Al1 O3,6.583908721151819
Pr1 Al1 Pd1,6.993685234115194
Pr1 Al1 Si2,4.381815651018626
Pr1 Al1 Zn1,5.711873124903149
Pr1 Al2,4.888729399022259
Pr1 Al2 Ga2,5.480207823853334
Pr1 Al2 Ge2,5.028828839060167
Pr1 Al2 Ni1,5.454898055630049
Pr1 Al2 Ni3,6.562762937587159
Pr1 Al2 Si2,3.8795976607680376
Pr1 Al2 Zn2,5.517102043110446
Pr1 Al3,4.273985399240616
Pr1 Al3 Ag1,5.27008060559427
Pr1 Al3 Cu1,4.876629243881223
Pr1 Al3 Ni2,5.611744135718205
Pr1 Al4,3.944501881789452
Pr1 Al5 Ni2,4.805039152405682
Pr1 As1,6.334582943386759
Pr1 As1 Pd1,7.650442463326296
Pr1 As1 Se1,6.567131313689933
Pr1 As2 Pd2,8.481162130766538
Pr1 As3,6.8049167040161525
Pr1 Au1,10.290203031015766
Pr1 Au2,12.416328272136631
Pr1 B1 Pd3,9.196264244095069
Pr1 B1 Pt3,14.496801288345026
Pr1 B1 Rh3,9.774088804279184
Pr1 B2 Ir3,14.547551012640794
Pr1 B2 Pt2 C1,11.561497857095128
Pr1 B2 Rh2 C1,8.10993285305586
Pr1 B2 Rh3,9.44444178644721
Pr1 B2 Ru3,9.375374963885646
Pr1 B3,5.930239754106615
Pr1 B6,4.797235899327342
Pr1 Be1 O3,6.592440355136668
Pr1 Bi1,8.212415216537304
Pr1 Bi1 Au2,12.432267005639025
Pr1 Bi1 O3,7.503595689079901
Pr1 Bi1 Pd1,9.220251838579756
Pr1 Bi1 Pd2,10.445126834965816
Pr1 Bi2 Au1,11.265009754345655
Pr1 Bi2 Br1 O4,7.730757360497485
Pr1 Bi2 Cl1 O4,7.5595261822732995
Pr1 Bi2 I1 O4,7.8408328598783745
Pr1 Bi3,10.149010774916528
Pr1 Br1 Cl2,4.286320723729764
Pr1 Br1 O1,5.338144190083433
Pr1 Br1 O2,5.580130193451454
Pr1 Br3,5.0324893674323885
Pr1 C2,5.575561048434356
Pr1 Cd1,7.171860893736407
Pr1 Cd1 Ag2,8.348918853501806
Pr1 Cd1 Au1,9.985661332617742
Pr1 Cd1 Au2,11.61121440180887
Pr1 Cd1 Cu1,7.647108212843674
Pr1 Cd1 Ga1,7.263395747689987
Pr1 Cd1 Hg2,10.739787342287269
Pr1 Cd1 In1,7.318472192490186
Pr1 Cd1 Ni4,8.810751502583946
Pr1 Cd1 Pd1,8.351449123838423
Pr1 Cd2,7.635088769088206
Pr1 Cd3,7.9589490842534705
Pr1 Cl1 O1,5.502390651882784
Pr1 Cl1 O2,4.351154001020814
Pr1 Cl3,3.854030678954996
Pr1 Co1 C2,6.969369083191057
Pr1 Co1 Ge1,7.490171765629763
Pr1 Co1 Ge2,7.498072034409426
Pr1 Co1 Ge3,7.408758465831841
Pr1 Co1 Ni1,8.89932879352675
Pr1 Co1 O3,7.389781550642455
Pr1 Co1 P1,6.573510165651004
Pr1 Co1 Sb2,7.701326229745272
Pr1 Co1 Si1,6.546197054359359
Pr1 Co2,8.720561396612649
Pr1 Co2 As2,7.913157173927047
Pr1 Co2 B2,7.156077156626142
Pr1 Co2 B2 C1,7.087022697481307
Pr1 Co2 Ge2,7.930917709544738
Pr1 Co2 P2,6.873950175302431
Pr1 Co2 Si2,6.639630147018968
Pr1 Co3 Ni2,8.39351964834853
Pr1 Co4 Si1,7.964179158177727
Pr1 Co5,8.342489694260687
Pr1 Cr1 O3,6.812662166642102
Pr1 Cr2 B6,5.997494015449631
Pr1 Cr2 Si2 C1,5.9629416828942965
Pr1 Cu1,7.015900409464725
Pr1 Cu1 Ge1,7.112654288183622
Pr1 Cu1 Ge2,7.33059166230663
Pr1 Cu1 O2,5.485236319209879
Pr1 Cu1 O3,7.366070383638502
Pr1 Cu1 Pb1,9.09297756810816
Pr1 Cu1 S1 O1,6.267240646514073
Pr1 Cu1 Sb2,7.574546056650715
Pr1 Cu1 Si1,6.168016932801435
Pr1 Cu1 Sn1,7.377059081992152
Pr1 Cu1 Sn2,7.455679630382587
Pr1 Cu2,7.588752788857199
Pr1 Cu2 Ge2,7.638710183428925
Pr1 Cu2 Si2,6.440414848173017
Pr1 Cu3 Pd2,8.991753054538018
Pr1 Cu4 Pd1,8.46523652505276
Pr1 Cu5,8.128768476947254
Pr1 Dy1 Al4,5.3778269618353765
Pr1 Dy1 C4,6.3982814602310265
Pr1 Dy1 In2,7.8188142064613935
Pr1 Dy1 Mg2,5.129727139667362
Pr1 Dy1 Tl2,10.196061713673943
Pr1 Dy1 Zn2,7.454373564478734
Pr1 Dy3,7.840409323417041
Pr1 Er1 In2,7.9715626613709265
Pr1 Er1 Mg2,5.241866756519933
Pr1 Er1 Tl2,10.34724014905462
Pr1 Er1 Zn2,7.628969333257982
Pr1 Er3,8.20576832298781
Pr1 Eu1 Ag2,7.8023834136408015
Pr1 Eu1 Hg2,9.738331116270508
Pr1 Eu1 Zn2,6.881901169271069
Pr1 Eu3,6.082388961503129
Pr1 Fe1 As1 O1,6.153806906111091
Pr1 Fe1 Co1,8.333465348715592
Pr1 Fe1 Co4,8.184696463718199
Pr1 Fe1 Ge2,7.327857287568352
Pr1 Fe1 Ge3,7.31542416114054
Pr1 Fe1 Ni4,8.285545624061504
Pr1 Fe1 P1 O1,5.86045250815492
Pr1 Fe1 Sb2,7.622596431407649
Pr1 Fe1 Si1,6.364388258150685
Pr1 Fe1 Si2,5.913937939715359
Pr1 Fe2,8.00932334763476
Pr1 Fe2 Ge2,7.426946128732558
Pr1 Fe2 Si2,6.428321950318768
Pr1 Ga1,6.4478888469112645
Pr1 Ga1 Au2,11.31542714345737
Pr1 Ga1 Co2,7.965315059900207
Pr1 Ga1 O3,4.403044172580138
Pr1 Ga1 Si1,6.105101825225678
Pr1 Ga2,6.67799394128361
Pr1 Ga2 Co3,8.168115212489113
Pr1 Ga2 Ni1,7.215179627053948
Pr1 Ga3,6.837627684045175
Pr1 Ga3 Au1,8.712799890263748
Pr1 Ga3 Ni1,7.371973127906465
Pr1 Ga3 Pd1,7.708573461396848
Pr1 Ga3 Pt1,9.259321872799754
Pr1 Gd1 Al4,5.445890267680022
Pr1 Gd1 Zn2,7.194032312645555
Pr1 Ge1,6.8084257149773695
Pr1 Ge1 Au1,9.724789790671757
Pr1 Ge1 Pd1,8.097070110169339
Pr1 Ge1 Ru1,8.027283263536198
Pr1 Ge2,6.643089072657655
Pr1 Ge2 Pd2,8.45913585532544
Pr1 Ge2 Rh2,8.748489753357637
Pr1 Ge2 Ru2,8.619827070716097
Pr1 Ge3,6.87698564197337
Pr1 Ge3 Rh1,7.6375738704554035
Pr1 Ge5,6.631410108417036
Pr1 H1,5.820368500487359
Pr1 H1 Se1,6.39389864985402
Pr1 H2,5.520679837399842
Pr1 H3,5.806968751364434
Pr1 Hf1 O3,8.686255885744457
Pr1 Hg1,9.782534846566286
Pr1 Hg1 Pd1,10.446739196252066
Pr1 Hg3,11.852766647789784
Pr1 Ho1,7.453353389658672
Pr1 Ho1 Al4,5.431606083177375
Pr1 Ho1 In2,7.898413603206402
Pr1 Ho1 Mg2,5.1814415969479946
Pr1 Ho1 Tl2,10.297913512349758
Pr1 Ho1 Zn2,7.571435283393144
Pr1 Ho3,8.062601884259166
Pr1 I1 O1,5.602222736300932
Pr1 I3,3.861329384086938
Pr1 I6,0.1646778748840576
Pr1 In1,7.149556985749898
Pr1 In1 Ag2,8.436448630166604
Pr1 In1 Au1,9.904986400024724
Pr1 In1 Au2,11.597156932737311
Pr1 In1 Co2,8.189100264019812
Pr1 In1 Cu1,7.620041625249102
Pr1 In1 Cu2,8.040014047060483
Pr1 In1 Ni1,7.469363788597442
Pr1 In1 Ni2,8.095751727140332
Pr1 In1 Pd1,8.33137236613948
Pr1 In1 Pd2,9.181514861238291
Pr1 In1 Pt1,10.457103416604747
Pr1 In1 Pt4,14.859072979105145
Pr1 In1 Rh1,8.567989147439553
Pr1 In2 Ir1,9.96154065601836
Pr1 In2 Rh1,8.444266157641435
Pr1 In3,7.522208521694082
Pr1 In5 Co1,7.815775276593259
Pr1 In5 Ir1,8.838678573812853
Pr1 In5 Rh1,7.977401608803048
Pr1 Ir2,15.127672886920204
Pr1 Ir3,16.12321448356526
Pr1 Lu1 In2,8.257237176178974
Pr1 Lu1 Mg2,5.4386003880117695
Pr1 Lu3,8.847637024669773
Pr1 Mg1,4.582806211324408
Pr1 Mg1 Ag1,5.892635255411565
Pr1 Mg1 Ag2,6.762117667446502
Pr1 Mg1 Au2,10.149573574340014
Pr1 Mg1 Cd2,6.412931624014475
Pr1 Mg1 Ga1,5.222882191920985
Pr1 Mg1 Hg2,9.361524812088126
Pr1 Mg1 In1,5.527272648195445
Pr1 Mg1 Ni4,7.275103258536867
Pr1 Mg1 Pd1,6.364866624061213
Pr1 Mg1 Pt1,8.576721410255544
Pr1 Mg1 Sn1,5.5973287512149
Pr1 Mg1 Tl1,7.2809907388394866
Pr1 Mg1 Tl2,8.603491482018955
Pr1 Mg1 Zn2,5.679848728371351
Pr1 Mg2,3.8016925520255103
Pr1 Mg2 Ag1,5.256672579717452
Pr1 Mg3,3.4397637133994663
Pr1 Mn1 Co1 Ge2,7.554769959594917
Pr1 Mn1 Ga1,6.798482205642252
Pr1 Mn1 Ge1,6.779693718811852
Pr1 Mn1 In1,6.727116219160871
Pr1 Mn1 Ni4,8.156425799691727
Pr1 Mn1 Si1,6.125356478621299
Pr1 Mn1 Si2,5.611158530285701
Pr1 Mn2 Ge2,7.304202524049041
Pr1 Mn2 Si1 Ge1,6.761979151215751
Pr1 Mn2 Si2,6.090752439426184
Pr1 Mo3,8.014441336198828
Pr1 N1,5.969066764996172
Pr1 N2,4.854829638813339
Pr1 Nb1 O3,6.855145839496563
Pr1 Nd1,6.514490253021962
Pr1 Nd1 Al4,4.953640661115904
Pr1 Nd1 Al6,4.35631565663135
Pr1 Nd1 Hg2,9.913944891932005
Pr1 Nd1 In2,7.229034917059724
Pr1 Nd1 Ir2,12.296762230882148
Pr1 Nd1 Mg2,4.661912358390583
Pr1 Nd1 O2,8.03203437664513
Pr1 Nd1 Sb1,7.152426153449
Pr1 Nd1 Sb2,6.572970106208509
Pr1 Nd1 Tl2,9.504300930013576
Pr1 Nd1 Zn2,6.794668814362987
Pr1 Nd3,6.733911594384716
Pr1 Ni1,7.409738557667037
Pr1 Ni1 As1,7.452063283913169
Pr1 Ni1 Bi1,9.220625691786308
Pr1 Ni1 C2,6.829015136929773
Pr1 Ni1 Ge2,7.557755132549515
Pr1 Ni1 Sb1,7.605970800400259
Pr1 Ni1 Sb2,7.649517956601982
Pr1 Ni1 Sn1,8.057811221599888
Pr1 Ni2,8.665865173469717
Pr1 Ni2 As2,7.919134367349959
Pr1 Ni2 B2 C1,7.014099329459356
Pr1 Ni2 Ge2,7.811679446206472
Pr1 Ni2 P2,7.042608033352697
Pr1 Ni2 Sb2,8.129771700738843
Pr1 Ni2 Sn2,7.933295438516804
Pr1 Ni5,8.509952546968256
Pr1 O1,7.846113690977709
Pr1 O1 F1,6.241158723918949
Pr1 O2,6.120398502877863
Pr1 O3,5.181547997614971
Pr1 Os2,14.9566530241698
Pr1 P1,5.42278394410205
Pr1 P1 Ir1,9.86737979116859
Pr1 P1 Os1 O1,9.05254739939318
Pr1 P1 Pd1,7.415912616931041
Pr1 P2 Pd2,7.852692838921624
Pr1 P2 Ru2,7.928080662030112
Pr1 Pb1 Au1,11.136341537098223
Pr1 Pb1 Au2,12.587638745279534
Pr1 Pb1 O3,7.041604055881917
Pr1 Pb2,9.310412942912928
Pr1 Pb3,10.366690560971358
Pr1 Pd1,8.13330137551301
Pr1 Pd1 Pb1,10.060205819707452
Pr1 Pd2,8.309969580841136
Pr1 Pd3,10.113756278924328
Pr1 Pt1,11.165315220098028
Pr1 Pt2,14.635056564269927
Pr1 Pt3,16.024536122271236
Pr1 Pt5,16.275146917912725
Pr1 Re2,14.159786503391768
Pr1 Re4 Si2,12.846471657999636
Pr1 Rh1,8.552524364349903
Pr1 Rh1 C2,7.475441388958687
Pr1 Rh2,10.067428351841883
Pr1 Rh3 C1,9.96927172558385
Pr1 Ru2,9.94110718158072
Pr1 S1,5.865214168735771
Pr1 S1 F1,5.702344265270308
Pr1 S1 O1,5.431241891521377
Pr1 S2,5.417332978881637
Pr1 S3,4.769028393594128
Pr1 Sb1,6.507072294473764
Pr1 Sb1 Pd1,8.024288445370692
Pr1 Sb1 Pt1,10.166995451897892
Pr1 Sb1 Te1,7.010117550379226
Pr1 Sb2 Au1,9.287727032896518
Pr1 Sb2 Pd1,7.722290664064266
Pr1 Sb3,7.376972830336528
Pr1 Sc1 Ge1,5.637927848855279
Pr1 Sc1 Si1,4.534213678073312
Pr1 Se1,6.645286832055008
Pr1 Se2,6.530427477661703
Pr1 Si1,5.679450813393057
Pr1 Si1 Ag1,6.572028760143456
Pr1 Si1 Ge1,5.929204557559938
Pr1 Si1 I1,5.393437842381612
Pr1 Si1 Ni1,6.2186709190284
Pr1 Si1 Pt1,9.234463130987766
Pr1 Si1 Ru1,7.062379775531292
Pr1 Si2,5.165484865784329
Pr1 Si2 Ag1,6.297368569737922
Pr1 Si2 Ag2,6.987882967814584
Pr1 Si2 Au2,10.000508267636125
Pr1 Si2 Mo2 C1,6.797679450781217
Pr1 Si2 Ni1,6.085484564293334
Pr1 Si2 Ni2,6.5398992920523895
Pr1 Si2 Os2,10.776210412636756
Pr1 Si2 Pd2,7.499828580758176
Pr1 Si2 Pt2,10.699522966359694
Pr1 Si2 Rh1,6.508165061581178
Pr1 Si2 Rh2,7.679574212824445
Pr1 Si2 Ru1,6.561567498723617
Pr1 Si2 Ru2,7.472869820673687
Pr1 Sm1,6.805385545860272
Pr1 Sm1 Fe4,8.225068298437348
Pr1 Sm1 In2,7.072023956692394
Pr1 Sm1 Ir2,12.620925820831973
Pr1 Sm1 Mg2,4.825801508824996
Pr1 Sm1 O2,8.240465440038575
Pr1 Sm1 Se1 S1,6.63184612607516
Pr1 Sm1 Tl2,9.74229112402643
Pr1 Sm1 Zn2,7.026817819581295
Pr1 Sm3,7.027722274902459
Pr1 Sm3 S4,6.423680436213576
Pr1 Sn1 Au1,9.65244042855283
Pr1 Sn1 Au2,11.520518457717918
Pr1 Sn1 Ir1,10.89528259331926
Pr1 Sn1 Pd1,8.505999468827575
Pr1 Sn1 Pt1,10.623927551144469
Pr1 Sn1 Rh1,8.743707140214843
Pr1 Sn2,7.341003922113975
Pr1 Sn3,7.480273278990365
Pr1 Te1,6.753800532924807
Pr1 Te1 Cl1,5.982749657379155
Pr1 Te2,6.948589390750193
Pr1 Te2 Se1,6.391081086542847
Pr1 Te3,6.477738189976155
Pr1 Ti1 Ge1,6.290561342930364
Pr1 Ti1 O3,6.412430763114484
Pr1 Tl1,9.363448308005962
Pr1 Tl1 Ag2,9.782353804434528
Pr1 Tl1 Cd1,8.99010155826737
Pr1 Tl1 O3,6.516001688581736
Pr1 Tl1 Pd1,9.400532307921392
Pr1 Tl1 Se2,6.551892693633183
Pr1 Tl1 Te2,6.599351647260945
Pr1 Tl2 In1 Se4,6.796744442549593
Pr1 Tl2 In1 Te4,6.932185103615255
Pr1 Tl3,10.871879555166682
Pr1 Tm1 Mg2,5.295587550088984
Pr1 Tm1 Tl2,10.451932312609488
Pr1 Tm3,8.410998047672729
Pr1 V1 O3,6.532060516745839
Pr1 W3,15.269680889514513
Pr1 Y1,5.527142521053438
Pr1 Y1 Al4,4.4023605428312775
Pr1 Y1 Al6,3.947828314120338
Pr1 Y1 Co4,8.044588814584028
Pr1 Y1 Fe4,7.405041178226515
Pr1 Y1 In2,4.375835663996637
Pr1 Y1 Mg2,4.035324317066884
Pr1 Y1 Mg4,3.368580772954526
Pr1 Y1 Mg6,3.103962854084989
Pr1 Y1 Ni4,7.945444311448377
Pr1 Y1 O2,6.960996551747802
Pr1 Y1 Sn6,7.209288204637889
Pr1 Y1 Tl2,9.135551519575811
Pr1 Y1 Zn2,6.1460071611232925
Pr1 Y3,4.971947430618571
Pr1 Zn1,6.681553672740455
Pr1 Zn1 Ag1 As2,6.731109896172739
Pr1 Zn1 Ag1 P2,5.976811003967612
Pr1 Zn1 Ga1,6.6999032028446015
Pr1 Zn1 In1,7.019183084755445
Pr1 Zn1 Ni1,7.489617263165183
Pr1 Zn1 P1 O1,5.72801124434976
Pr1 Zn1 Pd1,7.967337121673178
Pr1 Zn1 Sb1 O1,6.669451296114718
Pr1 Zn2,6.849378426369326
Pr1 Zn2 As1 O2,3.890160235213852
Pr1 Zn2 Ga2,6.925899259441365
Pr1 Zn5,7.145451752658655
Pr2 Ag1 Hg1,8.711340114494508
Pr2 Ag1 Ir1,9.846466091997652
Pr2 Ag1 Ru1,8.375466994847994
Pr2 Ag1 Sb3,0.3568187011409525
Pr2 Al1 Co2,6.98090633382888
Pr2 Al1 N1 O3,6.890769279670519
Pr2 Al1 Ni2,7.285514245256162
Pr2 Al1 Si1,5.288703752515941
Pr2 Al1 Zn1,5.957888715578818
Pr2 Al3 Ag1,5.463728243659411
Pr2 Al3 Ge1,5.072418928629954
Pr2 As3 Au1,0.4088601013033596
Pr2 B1 C1,5.609066247301053
Pr2 Bi1,8.168858622134179
Pr2 Bi1 N1,7.713146357763276
Pr2 Bi1 O2,7.436423668701422
Pr2 Br2 O1,2.9845087609082843
Pr2 C1 Br1,6.423642746154986
Pr2 C1 N2 O2,5.137562964889488
Pr2 Cd1 Ag1,7.345067406161869
Pr2 Cd1 As2 O1,5.061550085538531
Pr2 Cd1 Hg1,8.456900531358992
Pr2 Cd1 Pb1,8.313132012149122
Pr2 Cd1 Sb3,0.3273433671664109
Pr2 Cd1 Sb4,6.943855881914449
Pr2 Cd1 Sn1,7.265947449670388
Pr2 Co1 Ge3,7.056910920146058
Pr2 Co1 O4,7.065133772651597
Pr2 Co1 Si3,5.766462278960372
Pr2 Co1 Sn4,7.547024694429323
Pr2 Co2 Si1 C1,6.752889584886079
Pr2 Cr1 S4,4.452354216619311
Pr2 Cr1 Se4,5.56105746891861
Pr2 Cu1 Ag1,7.30548185611226
Pr2 Cu1 As3,0.341170740717262
Pr2 Cu1 Ge6,6.7712350815026
Pr2 Cu1 Ir1,9.60715041844342
Pr2 Cu1 O4,6.821515862307185
Pr2 Cu1 Ru1,8.058807235971228
Pr2 Cu1 S2 O1,3.617965308298712
Pr2 Cu1 Sb3,0.2784753383939473
Pr2 Cu1 Si3 Rh2,7.0396308385443325
Pr2 Cu1 Sn4,7.36306466355856
Pr2 Cu3 Ge3,7.340276338576096
Pr2 Cu3 Sn3,0.8292693666082621
Pr2 Fe1 As2 O1,4.912122620229099
Pr2 Fe1 As2 Ru1 O2,6.9992876913800455
Pr2 Fe1 Ge4,6.892949171997367
Pr2 Fe1 P2 O1,4.091628429767232
Pr2 Fe1 Si2 Ru1,6.734996683016117
Pr2 Fe1 Si3,5.641170380563822
Pr2 Fe1 Sn4,7.482108005512163
Pr2 Fe2 S2 O3,5.606432121251283
Pr2 Fe2 Se2 O3,6.208820165957686
Pr2 Fe2 Si2 C1,6.395942704243534
Pr2 Ga1 Ag1,7.140522146286642
Pr2 Ga1 Ni2,7.683377564384584
Pr2 Ga3 Cu1,6.892692972825946
Pr2 Ge1 Rh3,9.58747231404454
Pr2 Ge3,6.550919795445158
Pr2 Ge3 Ir3,2.559542768949476
Pr2 Ge6 Au1,7.555886736463423
Pr2 Ge6 Pd1,6.983389295265159
Pr2 Ge6 Pt1,7.690302084528583
Pr2 Ge7,6.402323495780023
Pr2 Hg1 Pb1,9.493604596572997
Pr2 I2 O1,3.240945606564809
Pr2 In1,6.874337355170719
Pr2 In1 Ag1,7.254488147748895
Pr2 In3 Cu1,7.231750499255081
Pr2 In3 Ni1,7.358662083466319
Pr2 Ir1 Au1,11.379902829518914
Pr2 Ir1 Pd1,10.259378521485662
Pr2 Ir1 Rh1,10.484322379790624
Pr2 Mg1,5.214595323184786
Pr2 Mg1 Al1,4.947144320151531
Pr2 Mg1 Cd1,5.892033359722987
Pr2 Mg1 In1,5.868539822255531
Pr2 Mg1 Tl1,7.0104848697264925
Pr2 Mn1 P2 O1,0.807084246636637
Pr2 Mn1 Sb3,0.3124584088680047
Pr2 Mn1 Si2,5.326426374967058
Pr2 Mn1 Sn4,7.148438390903428
Pr2 Mn2 Se2 O3,5.98012151191486
Pr2 Ni1 Ge3,7.073972886380567
Pr2 Ni1 Ge4,7.16184765485124
Pr2 Ni1 Ge6,6.840897342922138
Pr2 Ni1 Ir1,9.837674599565815
Pr2 Ni1 O4,7.16458731231955
Pr2 Ni2 Sn1,7.915956196103847
Pr2 Ni3 As3,1.5827976319132986
Pr2 Ni3 P4,6.591490297523312
Pr2 O3,6.7767791807099655
Pr2 Os3,11.727439125644144
Pr2 P2 Os1 O1,6.322534656851629
Pr2 P3 Rh3,6.667781146602763
Pr2 Re2 Si2 C1,9.148875059660066
Pr2 S1 O2,5.9449840447265405
Pr2 S2 F1,1.5032358890082018
Pr2 Sb1,7.008265685407553
Pr2 Sb1 Au3,11.05669797326125
Pr2 Sb1 O2,6.37821270161512
Pr2 Sb3 Au1,0.3584281442803523
Pr2 Sb3 Pd1,0.2656209895512091
Pr2 Se1 O2,6.4261174425835375
Pr2 Se2 F1,5.121665867677133
Pr2 Si1 Rh3,9.131002716021625
Pr2 Si3,5.047194925193049
Pr2 Si3 Ni1,5.771701723500461
Pr2 Si3 Pt3,9.342408376439716
Pr2 Sn1 Hg1,8.517820541185849
Pr2 Te1 O2,6.637291253133812
Pr2 Ti1 Ge2,5.862943312017135
Pr2 Tl1,8.409823856401978
Pr2 Tl1 Ag1,8.484448710282122
Pr2 Tl1 Cd1,8.245098430593513
Pr2 Tl1 Hg1,9.516304992520478
Pr2 Tl1 In1,8.231060782436643
Pr2 Tl3 In3,9.28367202168503
Pr2 Y1,5.837918042928192
Pr2 Y2 O5,5.425512747603102
Pr2 Zn1 Ag1,7.1029809650905245
Pr2 Zn1 As4,6.507779448113173
Pr2 Zn1 Bi4,9.1305275328687
Pr2 Zn1 Ga1,6.70279376362788
Pr2 Zn1 Hg1,8.250176334578185
Pr2 Zn1 In1,5.857272277595887
Pr2 Zn1 Ir1,9.32161744791519
Pr2 Zn1 P2 O1,4.057124244414227
Pr2 Zn1 Ru1,7.809222502271545
Pr2 Zn1 Sb3,0.3195197511753382
Pr3 Ag1,7.162285183147007
Pr3 Al1,6.147339108035884
Pr3 Al1 C1,5.654872105865764
Pr3 Al1 N1,4.414446347963168