Composition,Density
La1 Cr1 Re1 O6,6.735637148393098
La1 Cr1 Sb1 O6,5.739129102281024
La1 Cr1 Sn1 O6,5.632259156522234
La1 Cr1 Te1 O6,5.797583240148797
La1 Cr2 Si2 C1,5.900088339965713
La1 Cu1,6.70948968371372
La1 Cu1 Ge1,6.864548122802524
La1 Cu1 Ge2,7.060458007283403
La1 Cu1 Ni4,8.323611517030683
La1 Cu1 O2,5.324352950436361
La1 Cu1 O3,7.165968549859712
La1 Cu1 Pb1,8.810648179805494
La1 Cu1 Pd1,8.01008068571771
La1 Cu1 S1 O1,6.124617206709288
La1 Cu1 Sb2,7.436645207523663
La1 Cu1 Se1 O1,6.758638028487416
La1 Cu1 Si1,5.948575843951555
La1 Cu1 Si2 Ni1,6.301811575919805
La1 Cu1 Sn1,6.975015474805444
La1 Cu1 Te1 O1,6.999248087992701
La1 Cu2,7.117533559830736
La1 Cu2 Ge2,7.4545608084080675
La1 Cu2 Ni3,8.269538151494181
La1 Cu2 Se1 O2,3.215222717232763
La1 Cu2 Si2,6.258435713913083
La1 Cu3 Ni2,8.305444168890434
La1 Cu5,7.94728601783334
La1 Dy1,7.232667957037689
La1 Dy1 Mg2,4.997152076957524
La1 Dy1 Ru2,9.882649798858164
La1 Dy1 Tl2,9.96875463175285
La1 Er1 Al4,5.385036591582972
La1 Er1 In2,7.758142129844089
La1 Er1 Mg2,5.086231827659463
La1 Er1 Se2,7.506930696986542
La1 Er1 Tl2,10.12562604695917
La1 Er3,8.188996187920106
La1 Eu1 Ag2,7.454868774511639
La1 Eu1 Al4,4.877524452514585
La1 Eu1 Au2,10.510091540276322
La1 Eu1 Cd2,6.8021338442009815
La1 Eu1 Hg2,9.726260988681943
La1 Eu1 Pd2,8.582128512637015
La1 Eu1 Pd6,9.737604464164349
La1 Eu1 Pt2,11.800874898899464
La1 Eu1 S2,5.828400835407759
La1 Eu1 Zn2,6.745027997625851
La1 F1,5.814035227338208
La1 F2,5.65331172065107
La1 F3,5.792260336843414
La1 Fe1 Cu1 Ni3,8.183006092151462
La1 Fe1 Ge1,6.680088685063271
La1 Fe1 Ge3,7.178630018113332
La1 Fe1 Ni4,8.184901017173484
La1 Fe1 O3,6.50503335833213
La1 Fe1 P1 O1,5.337337070142887
La1 Fe1 Sb2,7.458439956036729
La1 Fe1 Si1,6.127574143298776
La1 Fe1 Si2,5.772616580112958
La1 Fe1 Si2 Rh1,6.8513688941636
La1 Fe2 Ge2,7.245118986219554
La1 Fe2 P2,6.517463529221655
La1 Fe2 Si2,6.226265258655414
La1 Fe5 H2,7.229226252935555
La1 Ga1,6.140433114977302
La1 Ga1 Au2,10.989270427457011
La1 Ga1 Ni4,8.167310196603147
La1 Ga1 O3,4.378282016363295
La1 Ga1 Sb2,6.651690068906828
La1 Ga1 Si1,5.8401236582405645
La1 Ga2,6.394803221708668
La1 Ga2 Ni1,7.012445255914795
La1 Ga2 Pt3,12.712550346353153
La1 Ga2 Rh3,9.011895291679297
La1 Ga3 Cu1,7.058917797074598
La1 Ga3 Ni1,7.214002508874754
La1 Ga3 Pd1,7.498362568316469
La1 Ga3 Pd2,8.286155655682455
La1 Ga3 Pt1,8.94688217397829
La1 Ga6 Pd1,7.029204786039323
La1 Gd1 Al4,5.204155766136188
La1 Gd1 Br2 O2,6.183890881226691
La1 Gd1 C4,5.966639663462003
La1 Gd1 Cl2 O2,5.8518186889663575
La1 Gd1 N2,7.847120053086403
La1 Gd1 Tl2,9.654431390721648
La1 Gd3,7.324041751371122
La1 Ge1,6.496552365356118
La1 Ge1 Au1,9.212862925670525
La1 Ge1 I1,5.625318689568183
La1 Ge1 Ir1,9.83117178548696
La1 Ge1 Os1,8.69583124576149
La1 Ge1 Pd1,7.857198795651344
La1 Ge1 Pt1,9.63349214948222
La1 Ge1 Ru1,7.731537755025932
La1 Ge2,6.447172399329149
La1 Ge2 Ir1 Ru1,10.067151150291163
La1 Ge2 Ir3,13.202723386167646
La1 Ge2 Pd2,8.300326005582953
La1 Ge2 Pt2,11.137876633950224
La1 Ge2 Rh1,7.63092533485103
La1 Ge2 Rh2,8.545545767582656
La1 Ge2 Ru1 Rh1,8.50995060365546
La1 Ge2 Ru2,8.453043713239271
La1 Ge3 Ir1,8.934271887327258
La1 Ge3 Os1,8.920484094881619
La1 Ge3 Rh1,7.523252487186177
La1 Ge3 Ru1,7.516295027221354
La1 Ge5,6.452387950060925
La1 H1 Br2,4.52369628138382
La1 H1 O2,5.253790701436348
La1 H2,5.175525095498188
La1 H3,5.441679708908556
La1 Hg1,9.379990733246943
La1 Hg1 Au2,12.728504915993106
La1 Hg1 Pd1,10.138099036799566
La1 Hg2,9.284259975059598
La1 Hg2 Pb1,0.9041870248690226
La1 Hg3,10.176838330930927
La1 Ho1 In2,7.688855578898267
La1 Ho1 Mg2,5.06103630079962
La1 Ho1 Ru2,10.000468147094594
La1 Ho1 Tl2,10.038474750862836
La1 I1,6.630716487259153
La1 I1 O1,5.53162757812746
La1 I2,5.583949774999354
La1 I3,4.888205240941176
La1 In1,6.775540348723317
La1 In1 Ag2,8.140214543886673
La1 In1 Au1,9.610932871961795
La1 In1 Au2,11.28141325465348
La1 In1 Cu2,7.7592382332936545
La1 In1 Hg2,10.173208725908824
La1 In1 Ni1,7.620543898240528
La1 In1 Ni2,7.887037242931894
La1 In1 Pd1,7.703326160752258
La1 In1 Pd2,8.587030497588204
La1 In1 Pt1,10.188450984853516
La1 In1 Pt4,14.71542788755683
La1 In1 Rh1,8.336542339741698
La1 In1 W1,9.13361877065747
La1 In2,7.0906925641136604
La1 In2 Ir1,9.794363781855278
La1 In2 Pd1,8.093877822184549
La1 In2 Rh1,8.255861178093845
La1 In3,7.2834051824662
La1 In5 Co1,7.65394489498266
La1 In5 Ir1,8.691345888455912
La1 In5 Rh1,7.820223407152915
La1 Ir2,14.968945631330852
La1 Ir5,16.758059047546517
La1 Lu1 Al4,5.529637839191173
La1 Lu1 In2,7.980174795874805
La1 Lu1 Mg2,5.260162851757613
La1 Lu1 Tl2,10.380771441531072
La1 Mg1,4.344018621181897
La1 Mg1 Ag1,5.661346303585453
La1 Mg1 Ag2,6.540104957481423
La1 Mg1 Au1,7.771958615827974
La1 Mg1 Au2,0.55145663536427
La1 Mg1 Cd2,6.195303524149498
La1 Mg1 Cu1,5.272879365329728
La1 Mg1 Cu2,5.792410268163539
La1 Mg1 Ga1,5.012264024843746
La1 Mg1 Hg2,9.04747292628161
La1 Mg1 In2,0.4538223533380215
La1 Mg1 Nb2,6.660747797340353
La1 Mg1 Ni2,6.097487181079359
La1 Mg1 Ni4,7.317757554689757
La1 Mg1 O3,5.708989785524037
La1 Mg1 Pd1,6.169011819433806
La1 Mg1 Tl1,6.609976164337715
La1 Mg1 Tl2,8.427831001381541
La1 Mg1 Zn2,5.52238889889585
La1 Mg2,3.6184350750544287
La1 Mg2 Ag1,5.086300520287454
La1 Mg2 Cd1,0.2468632753388417
La1 Mg2 Ni1,4.563354675724906
La1 Mg2 Pd1,5.085213846051295
La1 Mg2 Sc1,0.2452208528898142
La1 Mg2 Si2,3.731062708934711
La1 Mg3,3.1287479184734748
La1 Mg5,2.7757676424594773
La1 Mg6 Al1,2.5756772815306617
La1 Mg6 B1,2.671923626221762
La1 Mg6 Bi1,3.84331181456351
La1 Mg6 C1,2.7223134342581035
La1 Mg6 Co1,3.1341272510630445
La1 Mg6 Ga1,2.9846792515455083
La1 Mg6 Si1,2.6639858584886453
La1 Mg6 Zn1,2.9435067879973222
La1 Mn1 Al1 Ni3,7.070049767433889
La1 Mn1 Cr1 O6,5.111148697322554
La1 Mn1 Cu1 Ge2,7.075524686160022
La1 Mn1 Fe1 Ge2,7.253673896780323
La1 Mn1 Fe1 Si2,6.048493533705853
La1 Mn1 Ge1,6.509648449637728
La1 Mn1 In1,6.847380372715442
La1 Mn1 Ni4,7.964094544610884
La1 Mn1 O3,6.544061474598911
La1 Mn1 Sb1 O1,6.064963618092518
La1 Mn1 Si1,5.924915682607866
La1 Mn1 Si2,5.58466154171107
La1 Mn2 Ge2,7.143078114613071
La1 Mn2 Ni3,7.554207008062654
La1 Mn2 Si2,5.920529868919348
La1 Mo1 N3,6.492341434861131
La1 N1,5.76019316242597
La1 Nd1 Al4,4.887276137869803
La1 Nd1 Al6,4.250441707285219
La1 Nd1 C4,5.531340084094814
La1 Nd1 Cu1 O4,6.847501059175971
La1 Nd1 Hg2,9.714681904838343
La1 Nd1 Ir2,12.090485503785086
La1 Nd1 Mg2,4.563295022696869
La1 Nd1 N2,7.164780559805516
La1 Nd1 Tl2,9.28931467834222
La1 Nd1 Zn2,6.627373283483794
La1 Nd3,6.518492898004128
La1 Ni1,7.164308405958671
La1 Ni1 As1,5.968935917655147
La1 Ni1 As1 O1,6.834508513823669
La1 Ni1 B1 N1,7.076401417704857
La1 Ni1 C2,6.5955568384756855
La1 Ni1 Ge2,7.269820785733928
La1 Ni1 Ge3,7.199039349971602
La1 Ni1 O2,7.131114401188025
La1 Ni1 O3,7.10761180460951
La1 Ni1 P1 O1,6.086378911142646
La1 Ni1 Sb1,6.49190020158571
La1 Ni1 Sb2,7.455367520776104
La1 Ni1 Sn2,7.571515402197976
La1 Ni2,8.569242913142805
La1 Ni2 As2,7.75122435911369
La1 Ni2 B2 C1,6.86920901082653
La1 Ni2 Ge1 P1,7.200494106584125
La1 Ni2 Ge2,7.613736614664866
La1 Ni2 P2,6.853474438907607
La1 Ni2 Rh3,9.463208425574395
La1 Ni2 Sn2,7.775117052508177
La1 Ni3 Rh2,9.161623849889551
La1 Ni4 Pt1,10.42069454695524
La1 Ni4 Rh1,8.866992089060158
La1 Ni5,8.386307061207898
La1 O1,7.501260704000754
La1 O1 F1,5.889436056803346
La1 O2,5.343840946664551
La1 O3,4.301357357253334
La1 Os1 N3,9.99610346252732
La1 Os2,14.768936658610466
La1 Os2 Rh1,14.359187088868127
La1 P1,5.093164792301468
La1 P1 Ir1,9.61067162625512
La1 P1 Pd1,7.196887874396615
La1 P1 Pt1,9.514256467545112
La1 P1 Rh1,7.300068409900951
La1 P2 Pd2,7.711734605659415
La1 P2 Ru2,7.488148043278911
La1 P3,4.825250431830279
La1 Pb1 Au1,10.729344010460103
La1 Pb1 Au2,12.29959930842463
La1 Pb1 N1 O5,5.597187938608468
La1 Pb2,9.54090363827238
La1 Pb3,10.297552988886016
La1 Pd1,7.850839881397315
La1 Pd1 O4,6.637726086058502
La1 Pd1 Pb1,9.839792250631088
La1 Pd2,8.132070367747533
La1 Pd2 Pb1,0.8401625079480679
La1 Pd3,10.003338251905191
La1 Pd3 C1,9.260488555353568
La1 Pd5,9.792287683050072
La1 Pm1 Ga2,6.798295598023065
La1 Pm1 Ir2,12.238816509914717
La1 Pm1 Mg2,4.63967093635332
La1 Pm1 Ru2,9.191905580260736
La1 Pm1 Tl2,9.348936485641651
La1 Pm1 Zn2,6.704088582173906
La1 Pm3,6.690524812543059
La1 Pr1 Al4,4.8112274520829255
La1 Pr1 Al6,4.188629531906349
La1 Pr1 C4,5.418599192031384
La1 Pr1 Hg2,9.568631059114407
La1 Pr1 In2,6.936590271902152
La1 Pr1 Ir2,11.9307463822376
La1 Pr1 Mg2,4.475717342478176
La1 Pr1 Tl2,9.134131538568376
La1 Pr1 Zn2,6.536328725215932
La1 Pr3,6.289721042469845
La1 Pt1,10.867371681882188
La1 Pt1 O3,9.27600052033974
La1 Pt2,14.431595371680295
La1 Pt3,15.796151751727004
La1 Pt3 C1,14.284264548701186
La1 Pt5,16.1302332048178
La1 Re1 B1,9.849712136737685
La1 Re1 N3,9.74398467334756
La1 Re2 Ag1,13.279532294857589
La1 Re2 W1,16.020935856799202
La1 Rh1,8.373506722606786
La1 Rh2,9.959708303542778
La1 Rh3,10.39502765773432
La1 Rh3 C1,9.824463710108391
La1 Ru2,9.818667150990734
La1 S1,0.0380206430659163
La1 S1 F1,5.469897208919056
La1 S2,4.951348739781563
La1 Sb1,6.135695656064844
La1 Sb1 Au2,0.9126694070309316
La1 Sb1 Pd1,7.75688251135344
La1 Sb1 Pd2,0.7444409619118395
La1 Sb1 Pt1,9.015445789642236
La1 Sb1 Te1,6.799728119345446
La1 Sb2 Au1,8.865792072953198
La1 Sb2 Pd1,7.748720616927392
La1 Sc1 Au2,0.8586091673030801
La1 Sc1 Ge1,5.446268570445126
La1 Sc1 O3,5.673387093636159
La1 Sc1 Ru2,0.6784820002252456
La1 Sc1 Sb1,5.848104636525782
La1 Sc1 Si1,4.3436539707884645
La1 Sc1 Tl2,0.7301153098182152
La1 Se1,2.288154076176761
La1 Se1 F1,6.125472662910712
La1 Se2,6.3385597871686805
La1 Se3,6.395690875936049
La1 Si1,5.409187962658933
La1 Si1 Ag1,6.3720134059907325
La1 Si1 I1,5.212095393143225
La1 Si1 Ni1,6.11469839556342
La1 Si1 Ni4,7.706223095793372
La1 Si1 Pt1,8.943745313538361
La1 Si1 Pt3,13.091160966231165
La1 Si1 Ru1,6.843448562897645
La1 Si2,4.963902180282632
La1 Si2 Ag1,6.09787633410253
La1 Si2 Ag2,6.817129809355361
La1 Si2 Au2,9.832157825372422
La1 Si2 Ir2,10.807568715981123
La1 Si2 Ni1,5.835014376754914
La1 Si2 Ni2,6.348186963630448
La1 Si2 Os2,10.608685197405098
La1 Si2 Pd2,7.319848038586709
La1 Si2 Pt1,8.153276694879914
La1 Si2 Pt2,10.23676256245058
La1 Si2 Rh2,7.483174049987793
La1 Si2 Rh3,8.22801627542129
La1 Si2 Ru1,6.373250514983914
La1 Si2 Ru2,7.320080766535967
La1 Si2 Ru3,8.134756954483894
La1 Si3 Ir1,7.535183277826356
La1 Si3 Os1,7.429727321527927
La1 Si3 Rh1,5.964732480213067
La1 Si3 Ru1,5.935299168420166
La1 Sm1 Ir2,12.430837175267571
La1 Sm1 Mg2,4.691143600946124
La1 Sm1 S2,6.09739330498999
La1 Sm1 Tl2,9.52531272853832
La1 Sm1 Zn2,6.855528871184791
La1 Sm3,7.0058767486571165
La1 Sn1,6.622382675946506
La1 Sn1 Au1,9.49171927255506
La1 Sn1 Au2,11.24776987448591
La1 Sn1 Hg2,0.4449122351768012
La1 Sn1 Ir1,10.671219986061336
La1 Sn1 O3,6.784308009954025
La1 Sn1 Pd1,8.272916855004551
La1 Sn1 Pt1,10.340384444640012
La1 Sn1 Rh1,8.537739857086851
La1 Sn2,7.241034348132668
La1 Sn2 Pd1,7.777520244160627
La1 Sn2 Rh1,7.839766265572868
La1 Sn3,7.340536659909055
La1 Ta1 Cr1 O6,6.593105277499974
La1 Ta1 O3,9.040122158092275
La1 Ta3,12.116562867847747
La1 Tb1 C4,6.173753129004666
La1 Tb3,7.562411326938385
La1 Te1,6.483075737886018
La1 Te1 Cl1,5.792818756135833
La1 Te2,6.775213848356024
La1 Te2 Se1,6.243924144038674
La1 Te3,5.366354543279963
La1 Ti1 Ge1,6.135918943639469
La1 Ti1 O3,6.282852087570259
La1 Ti1 Sb1 O6,5.342093661873452
La1 Ti1 Te1 O6,5.311202991660622
La1 Ti2 O6,4.623905701041848
La1 Tl1,8.946937426684046
La1 Tl1 Ag2,9.470209267827377
La1 Tl1 Au2,12.400204143642696
La1 Tl1 Cd1,8.700614828070982
La1 Tl1 Hg2,11.261782646752057
La1 Tl1 Pd1,9.9088492902921
La1 Tl1 Zn1,8.48893550737726
La1 Tl3,10.564590817587634
La1 Tm1 Mg2,5.166706693474199
La1 Tm1 O2,9.18964947530561
La1 Tm1 S2,6.833580783473985
La1 Tm1 Tl2,10.22114804660957
La1 V1,6.029222091670541
La1 V1 Cr1 O6,5.033183184398846
La1 V1 O3,6.408106455024793
La1 W1 N3,8.704838456535633
La1 Y1,5.374831528868726
La1 Y1 Al2,0.3961159217352965
La1 Y1 Al4,4.318858864285881
La1 Y1 Au2,0.9172575257288887
La1 Y1 Cd2,0.5088044353917441
La1 Y1 Cu2,0.5733953725662597
La1 Y1 Fe2 As2 O2,5.695751494849528
La1 Y1 Hg2,0.7452714966998385
La1 Y1 In6,7.182485775433723
La1 Y1 Ir2,0.9710933549772276
La1 Y1 Mg2,3.920360882967085
La1 Y1 Mg4,3.3174294841946823
La1 Y1 Mg6,2.959053831677894
La1 Y1 Mn2 Si2,5.64033032102213
La1 Y1 Pb2,0.7254101251253546
La1 Y1 Pd2,0.7104977294656125
La1 Y1 Tl2,0.7226101292786118
La1 Y1 Zn2,0.5027853697268098
La1 Y2 C6,4.759333759634599
La1 Y3,4.939939737476331
La1 Yb1 Ag2,8.307374150613539
La1 Yb1 Al4,5.333884771494763
La1 Yb1 Au2,11.678974339110582
La1 Yb1 Cd2,7.634391203861453
La1 Yb1 Cu2,8.28906334281155
La1 Yb1 Hg2,10.450284460537146
La1 Yb1 Mg2,4.849222832328387
La1 Yb1 Pd2,9.451684341281323
La1 Yb1 Pt2,12.8599675036999
La1 Yb1 Rh2,10.174305808179524
La1 Yb1 Tl2,9.84067145135388
La1 Yb1 Zn2,7.257554231069306
La1 Yb3,6.99598910455285
La1 Zn1,6.382409833522892
La1 Zn1 Ag1 As2,6.582679852319383
La1 Zn1 Ag1 P2,5.841876061135975
La1 Zn1 Ag2,0.4439187858118414
La1 Zn1 As1 O1,6.329918696896234
La1 Zn1 Au2,11.01774406113678
La1 Zn1 Cu1 P2,5.599472712737342
La1 Zn1 Ga1,6.441746821039804
La1 Zn1 Hg2,0.7391463410307186
La1 Zn1 In1,6.728721597636383
La1 Zn1 Ni1,7.266984794293799
La1 Zn1 Ni4,8.113234697775026
La1 Zn1 O3,6.912586053211705
La1 Zn1 P1 O1,5.691611744713422
La1 Zn1 Sb1 O1,6.518198925355156
La1 Zn2,6.585394093066508
La1 Zn2 Ag1,7.381740323778616
La1 Zn2 As1 O2,3.764168684512141
La1 Zn2 Cd1,0.4093724639934486
La1 Zn2 Co1,7.370674583811983
La1 Zn2 Ni3,7.959053063031104
La1 Zn3,6.554712872620598
La1 Zn3 Ni2,7.631533026427632
La1 Zn4 Ni1,7.291585744785754
La1 Zn5,6.9672851664330215
La1 Zr1 Au2,0.86505075671188
La1 Zr1 O3,6.261569380374259
La2 Ag1 As3,0.2049980479975496
La2 Ag1 Au1,0.8425860915715664
La2 Ag1 Bi3,0.3085945733755786
La2 Ag1 Hg1,0.7065790968725209
La2 Ag1 Ir1,9.513944701153068
La2 Ag1 O4,6.75083292330417
La2 Ag1 Os1,0.8509563503368082
La2 Ag1 Pb1,0.5465277726003354
La2 Ag1 Ru1,8.077570643652567
La2 Ag1 S2 O1,1.996711657621012
La2 Ag1 Sb3,0.363156927497468
La2 Ag1 Sn1,7.028081883140392
La2 Al1 Ge1,5.602859322925362
La2 Al1 Ge3,6.012174446766536
La2 Al1 In1,0.6130528870419174
La2 Al1 Zn1,0.5501570197945479
La2 Al3 Ge1,4.818864996420218
La2 Al3 Sn1,5.050203781894695
La2 As1 I2,5.413934259095923
La2 Au1 O4,8.1460553970757
La2 Be1 Ge1,0.5434323907275538
La2 Bi1,7.794857198810527
La2 Bi1 N1,7.46273450824486
La2 Bi1 O2,7.191632708496046
La2 Br1 Cl1 O2,5.630094601859433
La2 Br2 O1,2.5597291852570123
La2 C1 Cl1,5.686111329214704
La2 C1 N2 O2,5.532692375071082
La2 Cd1 Ag1,0.6984443933760851
La2 Cd1 As2 O1,4.876176363937233
La2 Cd1 Hg1,0.7652194535487743
La2 Cd1 In1,0.5953840911189814
La2 Cd1 Ir1,0.691923162396687
La2 Cd1 Ni2,7.2468940346956385
La2 Cd1 P2 O1,4.2073284103535045
La2 Cd1 Pb1,0.5348958794265911
La2 Cd1 Sb3,0.3027520052314839
La2 Co1 Ir1,0.9048786049596492
La2 Co1 Sb4,7.013330531868977
La2 Co1 Si1 O2,6.170809592150985
La2 Co1 Si3,5.560279087247335
La2 Co1 Sn4,7.337930660817902
La2 Co2 Se2 O3,6.401406872274937
La2 Co2 Si1,6.732598856013608
La2 Cr1 O6,5.951555824522337
La2 Cu1 Ge1,0.6941876255456633
La2 Cu1 Ge6,6.56375267521023
La2 Cu1 Ir1,9.33126173709806
La2 Cu1 N2 Cl2,5.593137825746847
La2 Cu1 N2 F2,6.3382642887121525
La2 Cu1 O4,6.630535012320788
La2 Cu1 Os1,0.8324904054744459
La2 Cu1 Ru1,7.9707877021614015
La2 Cu1 S2 O1,2.695300585441323
La2 Cu1 S4,5.088597357194044
La2 Cu1 Se2 O1,4.186369502185019
La2 Cu1 Si3,5.489005075006809
La2 Cu1 Sn4,7.165207137923884
La2 Cu1 Te2 O1,4.899569538918969
La2 Cu2 I1,6.411687518345783
La2 Cu2 Se1 S1 O2,6.410397986819283
La2 Cu3 Ni1,7.118414730768973
La2 Fe1 As2 O1,4.51243638422762
La2 Fe1 As2 Ru1 O2,6.860921077407751
La2 Fe1 P2 O1,3.929931713432326
La2 Fe1 Si3,5.604515344766756
La2 Fe1 Sn4,7.09586115840662
La2 Fe2 O5,6.153682543459169
La2 Fe2 S2 O3,5.591567888349394
La2 Fe2 Se2 O3,6.133151448826019
La2 Fe2 Si2 C1,6.1306560010618965
La2 Ga1 Ag1,6.808706773932196
La2 Ga1 Cu1,0.4258433886661904
La2 Ga1 Ir1,0.5911687457648696
La2 Ge1 I2,5.186339684851437
La2 Ge3,6.231651942136451
La2 Ge3 Ir3,10.287634115523796
La2 Hg1 Au1,0.8250248094271113
La2 Hg1 Ir1,0.85146572304556
La2 Hg1 Pb1,0.747883006436318
La2 Hg1 Ru1,0.7178182009579159
La2 I2 O1,2.929271842394725
La2 In1,6.604147726471045
La2 In1 Ag1,6.938681688433953
La2 In1 Ga1,0.5554102630162123
La2 In3 Sn3,7.367608756678875
La2 Ir1 Au1,11.034898197835924
La2 Ir1 Pd1,9.97484534515779
La2 Ir1 Pt1,1.0144447747819438
La2 Ir1 Rh1,0.934117217560415
La2 Ir1 Ru1,0.9364183590592
La2 Mg1,5.048562019165181
La2 Mg1 Al1,0.319551737941436
La2 Mg1 Al3,4.494342331896543
La2 Mg1 Cd1,5.606979021002104
La2 Mg1 Hg1,0.6140533178237924
La2 Mg1 In1,0.4959487776003232
La2 Mg1 O4,6.267411872199572
La2 Mg1 Tl1,6.686370299060521
La2 Mg1 Zn1,0.4118799339629421
La2 Mn1 Fe1 Se2 O3,6.011415754932324
La2 Mn1 P2 O1,0.9098344540710748
La2 Mn1 Sb4,6.63394058797254
La2 Mn2 Se2 O3,5.920923796391335
La2 Mo1 O6,5.132616409458689
La2 Ni1 As2 O1,5.021535212234063
La2 Ni1 Ir1,0.6831514257896528
La2 Ni1 O4,6.899039556321979
La2 Ni1 P2 O1,4.231663250328074
La2 Ni1 Pt1,9.01060607852304
La2 Ni1 Sn4,7.325571058978903
La2 Ni2 I1,6.4786696708132006
La2 O3,4.679824854126312
La2 P1 Br2,4.8309089099306055
La2 P1 I2,5.187510281408792
La2 P3 Rh3,1.761693950595074
La2 Pd1 O2 F2,6.744546169525584
La2 Pd1 O4,7.02051409975139
La2 Pd1 Ru1,8.462727678179151
La2 Re2 Si2 C1,8.82868193750418
La2 Ru1 Au1,1.1230424207601142
La2 S1 O2,5.700134244740708
La2 S2 F1,1.2061830318858342
La2 Sb1,6.715128694992242
La2 Sb1 Au3,10.463528548941596
La2 Sb1 I2,5.2911932732789335
La2 Sb1 O2,6.170737624928283
La2 Sb3 Au1,0.3049199370333829
La2 Sb3 Pd3,7.566931577510772
La2 Se1 O2,6.173819004443929
La2 Si2 O5,6.009355633430409
La2 Si3,4.820738654246034
La2 Si3 Ir3,2.083556401932831
La2 Si3 Ni1,5.535441796977524
La2 Sn1 Hg1,0.7122078792453508
La2 Sn3 Pb3,8.833967418950936
La2 Sn4 Ir1,8.236763014902715
La2 Sn4 Ru1,7.408261450455963
La2 Te1 I2,5.464931036709068
La2 Te1 O2,6.436651481929693
La2 Te1 O6,6.104611787597221
La2 Tl1 Ag1,0.7456296776599893
La2 Tl1 Cd1,7.864173901887547
La2 Tl1 Hg1,9.096842127253286
La2 Tl1 In1,7.840045540954671
La2 Tl1 Zn1,7.664843933275627
La2 Tl3 Pb3,10.44208212786813
La2 Tl3 Sn3,9.011785601014893
La2 W1 O6,6.666495238917634
La2 Y1 C6,5.048322376356124
La2 Zn1 Ag1,6.80019411465523
La2 Zn1 As2 O1,4.611273562089341
La2 Zn1 As4,6.306684779670763
La2 Zn1 Bi4,8.876647611637352
La2 Zn1 Cd1,0.7027205614304561
La2 Zn1 Cu1,0.7418594597231865
La2 Zn1 Ga1,6.359535108835059
La2 Zn1 Hg1,0.7134982134475822
La2 Zn1 In1,0.6564410371309427
La2 Zn1 Ir1,9.033208021863826
La2 Zn1 Ni2,7.423168599873753
La2 Zn1 P2 O1,3.91308765006692
La2 Zn1 Ru1,7.575669171642155
La2 Zn1 Sb3,0.1350655305977971
La2 Zn1 Sb4,6.766842767783394
La3 Ag1,6.887835206717009
La3 Al1,5.900819389809003
La3 Al1 C1,5.365885189191126
La3 Al1 N1,5.726235649631644
La3 Al1 O1,5.970418793614419
La3 B2 N4,6.387443585490897
La3 Br1,6.726094948281197
La3 Cd1,6.695591585243606
La3 Ce1,6.900172090384932
La3 Cl1,5.957284396121302
La3 Dy1,6.790767360339183
La3 Er1,6.861302380367447
La3 Eu1,6.234597894738222
La3 Ga1,6.731440356272905
La3 Ga1 Br3,5.196871765721921
La3 Ga2 Ni4,7.36821467719452
La3 Hf1,7.5652964801902
La3 Hg1,7.972547566036982
La3 Ho1,6.700582511660972
La3 In1,6.7455760598452565
La3 In1 B1,5.951142844799229
La3 In1 C1,6.237263959758519
La3 In1 N1,6.681349481290871
La3 Lu1,6.963243645481885
La3 Mg1,5.395228085980219
La3 Nb1,7.220168519955058
La3 Nd1,6.347615617751854
La3 Pb1,7.8553509194436
La3 Pb1 C1,7.33268149695804
La3 Pm1,6.373126914781629
La3 Ru1,7.803383154260107
La3 Sc1,5.696315071580552
La3 Si3 Ni1,5.680285975905447
La3 Sm1,6.456344932456213
La3 Sn1,6.931417285864698
La3 Sn1 C1,6.3991022372065824
La3 Sn1 N1,6.8173053482521695
La3 Ta1,8.423013168432336
La3 Tb1,6.59680020153335
La3 Ti1,6.106609120513108
La3 Tl1,7.866825897387702
La3 Tl1 C1,7.269250746729196
La3 Tm1,6.816013611917128
La3 Yb1,6.482391624728152
La3 Zn1,6.546395722265071
La3 Zr1,6.386873799849655
La4 Ga1 Si3,5.618914664092575
La4 Mg1,5.560238474124801
La5 Mg1,5.687636317174658