Composition,Density
Eu2 Mg1,4.936661677479664
Eu2 Mg1 Cd1,5.877046578269455
Eu2 Mg1 Ga3,6.246467036902943
Eu2 Mg1 H6,4.742694558335063
Eu2 Mg1 In1,5.609596216734266
Eu2 Mg1 Sn1,5.98747479007602
Eu2 Mg1 Tl1,6.941981073943222
Eu2 Mn2 O5,6.817092759443589
Eu2 N1,7.342783648652081
Eu2 Ni1 Ge3,7.09338270053122
Eu2 Ni1 O4,8.034345362899215
Eu2 Ni3 Sb4,7.951335830804949
Eu2 O3,7.830342818285772
Eu2 P1 Br1,5.866426569162787
Eu2 P1 Cl1,5.773268079450467
Eu2 P1 I1,5.953717829434484
Eu2 P3 Pt4,11.6599254934793
Eu2 Pd1 Au1,9.90515697729878
Eu2 Pt1 Au1,11.49752940870884
Eu2 S1 O2,6.735488226415585
Eu2 Sb1 Au1,9.026903674196822
Eu2 Sb3 Pd3,1.333092570197435
Eu2 Se1 O2,6.986512499123153
Eu2 Se1 S1,6.398011600533224
Eu2 Si3 Au1,7.083252857219794
Eu2 Si3 Ni1,5.962261796685958
Eu2 Sn1 Hg1,8.37113608106638
Eu2 Te1 O2,6.940158702645149
Eu2 Ti1 O4,7.23561710261982
Eu2 Ti2 O5,6.80882957767655
Eu2 Tl1 Cd1,8.228785668797425
Eu2 Tl1 Hg1,9.541410023821978
Eu2 Tl1 In1,8.832897498856429
Eu2 Tl1 Sn1,8.275351809681919
Eu2 Tl1 Zn1,8.126217660326535
Eu2 V1 O4,7.419597933877937
Eu2 W2 O5,9.855394766549402
Eu2 Zn1 Ag1,7.153066339350253
Eu2 Zn1 Bi2,7.8439963875805185
Eu2 Zn1 Cd1,6.730288131100714
Eu2 Zn1 Ga1,6.854903498934599
Eu2 Zn1 Hg1,8.347130008838826
Eu2 Zn1 In1,6.820548064047311
Eu2 Zn1 Ir1,10.11272185108604
Eu2 Zn1 Rh1,8.331826597775793
Eu2 Zn1 Sb2,6.609974825366205
Eu2 Zn1 Sn1,6.6969438351286055
Eu2 Zr1 O4,6.959604214144578
Eu3 Ag1,7.041714201335223
Eu3 Bi1,7.812754257511211
Eu3 Cr1,5.895797575345902
Eu3 Dy1,6.547066854601902
Eu3 Er1,6.6200842722551405
Eu3 H1,5.579870077537747
Eu3 Hf1,7.681830540889019
Eu3 Ho1,6.66075311993803
Eu3 In1,6.777953744420592
Eu3 In1 O1,7.980664436509737
Eu3 Lu1,6.904530545369287
Eu3 Mg1,5.349578945035414
Eu3 Mo1,7.344297458481429
Eu3 Nb1,7.203379349743217
Eu3 P1,7.246356653085958
Eu3 Pd1,6.177275428251157
Eu3 Re1,9.759243835792343
Eu3 S1,5.050755418939101
Eu3 S2 F4,6.390877133709858
Eu3 Sb1,7.326176685216252
Eu3 Si4,5.6959310864025054
Eu3 Sn1,6.718141148388193
Eu3 Ta1,7.949940494546138
Eu3 Tc1,8.038803704540387
Eu3 Te1,7.069373174410561
Eu3 Ti1,6.06288912418245
Eu3 Tl1,8.006177168244474
Eu3 Tm1,6.695172601431255
Eu3 V1,6.280620995218091
Eu3 W1,7.86910011170202
Eu3 Y1,5.587894415930905
Eu3 Zr1,6.334845175945337
Eu4 As2 O1,7.105949891968916
Eu4 Bi2 O1,8.200230288220993
Eu4 Sb2 O1,7.211672308889587
Eu5 Mg1,5.475478080653386
F2,1.3363114295141898
Fe1,6.916380718764021
Fe1 Ag1,8.917302751536443
Fe1 Ag1 O2,6.272929357370416
Fe1 Ag1 O3,6.101360078973732
Fe1 Ag1 S2,4.659218269464144
Fe1 Ag1 Se2,5.6456510981260175
Fe1 Ag1 Te2,7.942871151690447
Fe1 Ag2 Sn1 S4,4.619325074754139
Fe1 Ag3,9.317309897664911
Fe1 As1,8.093740434863395
Fe1 As1 O3,5.412087243894191
Fe1 As1 Rh1,8.858986383845007
Fe1 As2,7.424133836793692
Fe1 Au1,13.604631208906012
Fe1 Au3,15.74497858213873
Fe1 B1,6.887696686872927
Fe1 B2,5.896205533213424
Fe1 B2 W2,14.159913173993836
Fe1 B4 Mo2,7.592670746156996
Fe1 Bi1 As1 O1,7.767743064958811
Fe1 Bi1 O3,3.9351096205973217
Fe1 Br2,4.536917402245609
Fe1 Br3,4.425671475225835
Fe1 C1 N2,3.784462954606964
Fe1 Cl1,5.077900437846906
Fe1 Cl2,2.9329225116852373
Fe1 Cl3,2.200413099857065
Fe1 Cl4,2.6129639936068965
Fe1 Cl6,0.1778113366665988
Fe1 Co1,8.290362741274125
Fe1 Co1 As4,7.470701894144317
Fe1 Co1 B1,7.83250638498112
Fe1 Co1 B2,7.19948578683443
Fe1 Co1 Ge1,8.607823093363825
Fe1 Co1 O2,5.5691461524951045
Fe1 Co1 O4,4.236154461573563
Fe1 Co1 Pt2,15.67275853473405
Fe1 Co1 S2,6.01180018116777
Fe1 Co1 Sb4,8.21897137493345
Fe1 Co1 Se2,7.786685627877221
Fe1 Co1 Si2,6.465263034704562
Fe1 Co1 Sn1,8.983011519208945
Fe1 Co1 Sn4,8.81583240956681
Fe1 Co1 Te2,8.812142781333245
Fe1 Co2 Ge1,8.703471630482957
Fe1 Co2 N2,7.400807129281224
Fe1 Co2 O6,4.294411642786875
Fe1 Co2 Se4,6.977439122956616
Fe1 Co2 Si1,7.53404685328475
Fe1 Co3,8.694918803786157
Fe1 Cu1,8.378051960259215
Fe1 Cu1 Ni1,9.041582485657845
Fe1 Cu1 O2,5.351412452263909
Fe1 Cu1 Pd2,0.6835565027186087
Fe1 Cu1 Pt2,15.023168359633305
Fe1 Cu1 Rh2,0.8230964450879341
Fe1 Cu1 S2,3.8853250506466326
Fe1 Cu1 Se1 S1,5.018704498555613
Fe1 Cu1 Se2,5.496690195774241
Fe1 Cu1 Te2,6.5845766846538805
Fe1 Cu2 Ge1 S4,4.2632958746473335
Fe1 Cu2 Ge1 Se4,5.34023742944074
Fe1 Cu2 Si1 Se4,5.077729715726907
Fe1 Cu2 Sn1,8.638205232110726
Fe1 Cu2 Sn1 S4,4.436270678249759
Fe1 Cu2 Sn1 Se4,5.279707930629588
Fe1 Cu3,8.504699164856119
Fe1 Cu3 S4,4.414320565276724
Fe1 Cu4,8.711661777063359
Fe1 F2,4.067297799680853
Fe1 F3,3.133077466004063
Fe1 Ge1,7.396872350641015
Fe1 Ge1 Ru2,10.096764745396218
Fe1 Ge2,7.718265126335855
Fe1 Ge3,6.838340868360297
Fe1 H1,7.098567613253713
Fe1 H1 O2,3.656401387318352
Fe1 H2 O2,3.402825035822164
Fe1 H3,5.48826915184629
Fe1 H4 Cl2 O2,2.287094767435719
Fe1 Hg3,13.218094211623102
Fe1 I2,5.062751444486546
Fe1 Ir1,16.309018583796455
Fe1 Ir3,19.08520213857804
Fe1 Mo1 As2,8.16400056354674
Fe1 Mo1 O1,7.480646410363656
Fe1 Mo2,9.42113499865022
Fe1 Mo3 As4,8.293094999635684
Fe1 N1,4.116780562523188
Fe1 N2,6.030210517858023
Fe1 N2 Cl2,2.702163406059105
Fe1 Ni1,8.397919682739822
Fe1 Ni1 As1,8.41076399076899
Fe1 Ni1 As4,7.218830501005201
Fe1 Ni1 B1,7.842164467957807
Fe1 Ni1 Ge1,8.52929331516611
Fe1 Ni1 Mo1,8.05181482975252
Fe1 Ni1 N1,7.288526430276356
Fe1 Ni1 P1,7.364639775057215
Fe1 Ni1 Pt2,15.171144360889937
Fe1 Ni1 Pt6,17.80858536295253
Fe1 Ni1 S2,5.705433820888673
Fe1 Ni1 Sb4,7.986867368497338
Fe1 Ni1 Sn1,8.637143506502618
Fe1 Ni2,8.18863238377805
Fe1 Ni2 Ge1,8.975586658039072
Fe1 Ni2 Se4,6.929547797405284
Fe1 Ni3,8.630345313790913
Fe1 O1,1.2144196911976566
Fe1 O1 F1,4.069755047177923
Fe1 O2,2.8597409124964828
Fe1 O2 F1,3.811751862315945
Fe1 O3,2.8052315225420443
Fe1 P1,6.371739444433107
Fe1 P1 Rh1,8.12328330639149
Fe1 P2,5.12771282140921
Fe1 P2 S6,2.4551499128548304
Fe1 P2 W1,9.48048918177558
Fe1 Pb1 O3,8.396317842913724
Fe1 Pb1 W2,15.869617663240303
Fe1 Pd1,9.670923304990398
Fe1 Pd2,10.754366405558695
Fe1 Pd2 N2,8.707955488205414
Fe1 Pd3,10.54023099533485
Fe1 Pt1,14.814624174511732
Fe1 Pt1 O2,9.803321677415097
Fe1 Pt3,18.37242732910717
Fe1 Re1,15.507619917147313
Fe1 Re1 B1,13.129064773341604
Fe1 Re3,18.177165925527348
Fe1 Rh1,9.581025035928675
Fe1 Rh1 O3,5.794535835922729
Fe1 Rh2 Se4,7.341317497951297
Fe1 Rh3,10.87063547547185
Fe1 Ru1,10.583642690972528
Fe1 S1,4.1403373626812
Fe1 S2,3.0096864007452835
Fe1 Sb1,8.417664522643756
Fe1 Sb1 As1,7.883746036681821
Fe1 Sb1 Rh2,10.401055917470712
Fe1 Sb1 Te1,7.946106339458375
Fe1 Sb2,8.054637194636882
Fe1 Se1,5.247557691677904
Fe1 Se1 N1,5.568049513344195
Fe1 Se2,7.089857326606138
Fe1 Si1,6.333879997782489
Fe1 Si1 Ru2,9.193008985424049
Fe1 Si1 Tc2,8.909240118196806
Fe1 Si1 W1,10.420507368180225
Fe1 Si2,4.948231888288199
Fe1 Si2 Se4,4.104367918730201
Fe1 Si2 Tc1,0.5284095598042068
Fe1 Si4 P4,3.345922041511406
Fe1 Sn1,7.841701693890062
Fe1 Sn1 F6,3.950745942465195
Fe1 Sn1 N1,6.404504449166933
Fe1 Sn1 O3,5.664124969489379
Fe1 Sn1 O6,3.9371086166526825
Fe1 Sn1 Rh2,0.7733688403752439
Fe1 Sn1 Ru2,10.634597287725082
Fe1 Sn2,8.36399547953507
Fe1 Sn3,7.847320455624691
Fe1 Tc2 Cl1,8.844125375689197
Fe1 Tc2 Ge1,0.7508644358616504
Fe1 Te1,6.996625048410066
Fe1 Te2,7.265694966378287
Fe1 W1 N2,11.130713950664896
Fe2 As1,7.948233637648245
Fe2 As1 P1,7.300072950785646
Fe2 As1 S3,5.440420799705133
Fe2 B1,6.646477472904643
Fe2 B4 Mo1,7.146060473778043
Fe2 C1,6.5611157373428615
Fe2 Co1 Ge1,8.601683749486382
Fe2 Co1 Ir1,1.0054059430688242
Fe2 Co1 N2,7.299655342442829
Fe2 Co1 Se4,6.963447020543351
Fe2 Co1 Si1,7.484276178574466
Fe2 Cu1 N2,5.411150790009562
Fe2 Cu1 Ni1 Pt4,15.29253215960206
Fe2 Cu1 S3,4.200258922706176
Fe2 Ge1,7.762428107271648
Fe2 Ir1 Rh1,1.0781866918728131
Fe2 Ir2 O5,9.41261619662012
Fe2 N1,7.19008531075953
Fe2 Ni1,8.135211492055339
Fe2 Ni1 N2,6.257209945372621
Fe2 Ni1 Se4,6.976891663171837
Fe2 O3,4.876586380616339
Fe2 O3 F1,4.449432820241429
Fe2 P1,7.083597122111257
Fe2 Pb1 N2,8.869441211952472
Fe2 Pd1,8.908050082019246
Fe2 Pd3 Au3,13.717255164246517
Fe2 Pt1,13.676930812982697
Fe2 Pt1 Rh1,13.28105815478254
Fe2 Sb1 Te3,8.087027640803612
Fe2 Se1 S1,6.469790579478093
Fe2 Si1,7.120926216137652
Fe2 Si1 Ni1,7.351599963364856
Fe2 Si1 P1,6.187808902831903
Fe2 Sn1,8.618850836039002
Fe2 Te1 Se1,6.310824077785493
Fe3 Ag1,8.49413897649243
Fe3 Au1,11.154704997984624
Fe3 B1,7.007942367650874
Fe3 C1,7.333626503732596
Fe3 Co1,8.136129184363288
Fe3 Co1 N1,8.043184855438946
Fe3 Co3 Ge2,8.683185388878298
Fe3 Co3 Si2,7.518412577608196
Fe3 Cu1,8.119464254662665
Fe3 Cu1 As2,7.909763741861581
Fe3 F1,5.442787419734299
Fe3 Ge1,8.241307056300183
Fe3 Ge2,7.601929260864503
Fe3 H1,6.737619002785531
Fe3 Mo1,9.34680541669696
Fe3 N1,7.421215908097189
Fe3 Ni1,8.090843652601452
Fe3 Ni1 As4,8.077226701003305
Fe3 Ni1 N1,5.049622363683991
Fe3 Ni1 P4,6.2940355427872925
Fe3 Ni3 Ge2,8.644160320774168
Fe3 Ni3 Pt2,12.547962749769004
Fe3 O1,5.881062526352389
Fe3 O4,4.844984141501324
Fe3 Pd1,8.758538219674767
Fe3 Pd1 N1,8.274119290943903
Fe3 Pt1,11.382866585219642
Fe3 Pt1 N1,6.058691781427252
Fe3 Re1,12.874922645559751
Fe3 Rh1,8.781589772713986
Fe3 Rh1 N1,8.26455211404203
Fe3 S1,6.738017675766112
Fe3 S4,4.565297262223808
Fe3 Sb1,8.431490456466628
Fe3 Se1,8.84944712092075
Fe3 Se4,6.4886339343677335
Fe3 Si1,7.335734032422948
Fe3 Si2 Ni3,7.505998494886454
Fe3 Si4 Ir1,8.322292242598222
Fe3 Sn1,8.303877944267631
Fe3 Sn1 C1,8.406158407455472
Fe3 Sn1 Sb1,8.174349741327417
Fe3 Te1,8.964313541502786
Fe3 W1,12.343749862104293
Fe4 C1,6.894772565157772
Fe4 Mo1,8.464787966710443
Fe4 N1,7.95067482348643
Fe4 P1,5.968168736459096
Fe4 Sb3,7.015492787268979
Fe4 Se3 Br1,5.846854225228858
Fe4 Se3 N2,6.214668843667709
Fe4 Si1,7.147327528579133
Fe4 Te1 Se3,5.819916917038002
Fe4 Te3 S1,6.095533568110601
Fe4 Te3 Se1,6.632730848136617
Fe5 Co3,8.89838195165501
Fe5 Sb4,8.487574930169654
Fe6 Ge2 N1,8.121919178752295
Fe7 Co1,7.978044205166901
Fe8 N1,7.568512822854012
Ga1,5.488091905338511
Ga1 Ag1,8.078764799349704
Ga1 Ag1 O2,6.929419782595487
Ga1 Ag1 S2,4.517958693407411
Ga1 Ag1 Se1 S1,4.999515362109433
Ga1 Ag1 Se2,5.384515539861855
Ga1 Ag1 Sn1 Se4,5.083101460811751
Ga1 Ag1 Te1 Se1,5.571801891721201
Ga1 Ag1 Te2,5.640986684017866
Ga1 Ag2,9.022646918573235
Ga1 Ag3,9.095984689127468
Ga1 As1,5.053200624084066
Ga1 As1 Pd5,10.104109202634474
Ga1 As2 W1,9.84455956384832
Ga1 As3,6.467006749734401
Ga1 Au1,11.95940016805038
Ga1 Au1 O2,9.860740687239987
Ga1 B1 N2,5.269414177336419
Ga1 B1 O3,5.605211383792214
Ga1 B3 N4,4.518840807297715
Ga1 Bi1,6.866790563654896
Ga1 Bi1 O3,9.184240063827277
Ga1 Bi3,9.72693243807845
Ga1 C1,5.248370203690509
Ga1 C3,4.803403535533974
Ga1 C6,1.50345634318892
Ga1 Cl3,2.0507330196534626
Ga1 Co1,8.876587419433514
Ga1 Co1 Rh2,0.8492623872244066
Ga1 Co2 Ni1,8.823817980422309
Ga1 Co3,8.892173461654556
Ga1 Co4,8.727150322827569
Ga1 Co4 Ge3,8.710048925492638
Ga1 Cu1 Au2,1.1564049357187554
Ga1 Cu1 Ge1 Se4,5.082918034851982
Ga1 Cu1 I4,4.386591441764292
Ga1 Cu1 Ni2,0.7864848016279404
Ga1 Cu1 O2,6.043912088734914
Ga1 Cu1 Pd2,0.8087977005589684
Ga1 Cu1 Pt2,15.048414094719114
Ga1 Cu1 Rh2,10.365036072951652
Ga1 Cu1 S2,4.277152732237182
Ga1 Cu1 Se1 S1,4.981705373409405
Ga1 Cu1 Se2,5.3499233806530135
Ga1 Cu1 Sn1 Se4,5.170005322859549
Ga1 Cu1 Te1 Se1,5.57562340136708
Ga1 Cu1 Te2,5.6795528552436645
Ga1 Cu2,8.277808375454896
Ga1 Cu3,8.60683895027824
Ga1 Cu3 Hg1 Se4,6.169005524199783
Ga1 Cu3 N3,7.065572362928393
Ga1 Cu4,8.491940587885672
Ga1 F3,1.3071492118490593
Ga1 Fe1,7.909216710551788
Ga1 Fe1 Co2,8.691987029092338
Ga1 Fe1 Ir2,15.61602977863954
Ga1 Fe1 N2,5.896761786768011
Ga1 Fe1 Ni2,8.489201456782842
Ga1 Fe1 O3,5.205957994132141
Ga1 Fe1 Rh2,9.95578153174702
Ga1 Fe1 Ru2,0.6811893027576158
Ga1 Fe2,7.796148908407959
Ga1 Fe2 Ag1 Te4,5.634391955067867
Ga1 Fe2 Co1,8.311984187505539
Ga1 Fe2 Co4 Si1,8.082652686488283
Ga1 Fe2 Ni1,8.273584025038089
Ga1 Fe3,7.901040938864465
Ga1 Fe3 As1,7.4725182938767105
Ga1 Fe3 N1,8.048103870369307
Ga1 Fe4,7.995469971563827
Ga1 Ge1,4.857258601985723
Ga1 Ge1 O3,5.97486459308068
Ga1 Ge1 Pt6,17.584496353603967
Ga1 Ge1 Ru2,10.270498982596903
Ga1 Ge1 Te1,4.989099768840486
Ga1 Ge1 Te2,4.953648810257807
Ga1 Ge3,6.0987193959475325
Ga1 Ge3 Rh4,9.791645063381496
Ga1 H1,4.619032377386958
Ga1 H1 O2,5.1849969227500745
Ga1 H3,4.53708650412198
Ga1 Hg1 O2,9.156536003627204
Ga1 Hg3,10.8876910444002
Ga1 Ir1,15.173586448871912
Ga1 Mo2 C1,8.448288363392336
Ga1 Mo3,9.633794681143335
Ga1 N1,3.6898693122383217
Ga1 Ni1,8.62163515658008
Ga1 Ni1 O3,5.919929658044955
Ga1 Ni1 Pt2,1.392698745020917
Ga1 Ni1 Rh2,10.30421407233264
Ga1 Ni2,8.39372971175109
Ga1 Ni2 Pt1,12.334199083872738
Ga1 Ni3,8.90643595400204
Ga1 Ni3 As1,8.056779893859005
Ga1 Ni3 C1,7.95427496167457
Ga1 Ni3 Sb1,8.328033325667498
Ga1 Ni4 Ge3,8.1259075333636
Ga1 Ni6 Ge1,9.021130971827615
Ga1 O1,5.013758814697267
Ga1 P1,3.9763616742452976
Ga1 P1 O4,2.8662295760215346
Ga1 P1 Pd5,9.868095502204554
Ga1 P1 Pt5,16.477445801841277
Ga1 Pb3,9.784505917844522
Ga1 Pd1,9.433584875777395
Ga1 Pd3,10.606922401200928
Ga1 Pt1,14.302061127329177
Ga1 Pt1 O2,10.562793251692632
Ga1 Pt3,17.66731053473576
Ga1 Pt3 C1,14.881146491395718
Ga1 Re1,14.21898854116881
Ga1 Re1 As1,10.089363999191374
Ga1 Re1 Ge2,0.9667385805958622
Ga1 Re1 Tc2,1.004455581848272
Ga1 Rh1,10.175383626400352
Ga1 Rh3,10.985251340998731
Ga1 Ru1,10.19499410639346
Ga1 S1,3.392026074169878
Ga1 Sb1,5.287673763789086
Ga1 Sb1 O4,6.296708723059178
Ga1 Sb3,6.956279804127209
Ga1 Se1,4.354040299290082
Ga1 Si1 C1 N1,4.579881556224648
Ga1 Si1 Ni6,8.477388857469377
Ga1 Si1 O3,5.2922441146358805
Ga1 Si1 Ru2,9.406643833552693
Ga1 Si1 Tc2,0.6513045207316063
Ga1 Si3,4.0176495834774375
Ga1 Si3 C3 N1,3.9497724369382974
Ga1 Sn1 O3,6.762534269224833
Ga1 Sn1 Ru2,0.7512097357034585
Ga1 Sn1 Se2,5.690759578827929
Ga1 Sn3,6.705073952339229
Ga1 Tc1,9.368298842975983
Ga1 Tc2 Ge1,0.7464675525445839
Ga1 Tc2 W1,12.494730669947597
Ga1 Te1,4.8047225174667245
Ga1 Te1 O3,6.935710366037678
Ga2 Ag2 Se1 S3,4.783778685599677
Ga2 Ag2 Se3 S1,5.217715597255709
Ga2 Ag2 Te1 Se3,5.498866596064178
Ga2 As1 P1,4.589614762079917
Ga2 Au1,9.253557284351938
Ga2 B1 Sb1,6.009122010913909
Ga2 Bi1 As1,6.1040111584627645
Ga2 Bi1 N1,7.567861081421369
Ga2 Co1 Ir1,0.8906276612872109
Ga2 Co1 Ni1,0.6172275646546352
Ga2 Co1 Rh1,0.614669410549687
Ga2 Co1 Ru1,9.531774947481972
Ga2 Co1 S2 O2,4.123978408086833
Ga2 Co1 S4,3.6842890438232
Ga2 Co6 C1,8.546156743339868
Ga2 Cu1,7.089287099160112
Ga2 Cu1 Ag1 S4,4.436286597151719
Ga2 Cu1 Ag1 Se4,5.4261845358589325
Ga2 Cu1 Ag1 Te2 Se2,5.552944999263261
Ga2 Cu1 Ag1 Te4,5.713556616640976
Ga2 Cu1 Pd1,0.7624804278894528
Ga2 Cu1 S2 O2,4.009484327926438
Ga2 Fe1 Co1,8.732005610476639
Ga2 Fe1 S4,3.734023434236822
Ga2 Fe1 Se4,4.854775286144171
Ga2 Fe2 S5,3.973774106080352
Ga2 Fe6 C1,7.950484233664563
Ga2 Hg1 S4,4.685488266695283
Ga2 Hg1 Se4,5.714704485772671
Ga2 Hg1 Te4,5.979166140976195
Ga2 Ir1 Rh1,12.691765795779157
Ga2 Ir1 Ru1,12.602424164833216
Ga2 Ni1 Ru1,9.369198476423344
Ga2 Ni1 S4,3.752303809514573
Ga2 Os1,12.475111488607194
Ga2 Pt1,10.27794085635186
Ga2 Ru1,9.182918872761038
Ga2 Ru1 Pt1,0.9596490077324203
Ga2 Ru1 Rh1,10.233100760037583
Ga2 S3,3.42538547466079
Ga2 Se1 S1,4.248716831497595
Ga2 Se3,4.675086780412111
Ga2 Si4 Mo3,7.020608298540084
Ga2 Tc1 Pd1,0.7749260805815442
Ga2 Te3,3.795127318564688
Ga2 Te5,5.500925489777571
Ga2 W1 Se1,9.56009237272674
Ga3 Ag1,6.97396443117978
Ga3 As1,5.892729052660709
Ga3 Au1,9.08228672948852
Ga3 B1,5.341827495476104
Ga3 B1 N4,5.722975679555642
Ga3 Bi1,7.46567087750954
Ga3 Co4 Ge1,8.558330436931286
Ga3 Cu1,6.891598794920683
Ga3 Ge1,5.983763152222291
Ga3 Hg1,8.121333631599665
Ga3 Ni2,7.682461869291549
Ga3 Ni5,8.8027556717602
Ga3 P1,5.248661073788246
Ga3 Pb1,7.395753870995987
Ga3 Pt1,9.80996043228716
Ga3 Pt2,11.709542099528615
Ga3 Pt5,16.029249927521253
Ga3 Rh1,8.272415851130669
Ga3 Sb1,6.192248930759334
Ga3 Se1,5.494145094449584
Ga3 Si1,5.396138324587112
Ga3 Si1 Ni4,8.0032526750294
Ga3 Sn1,6.241782548156008
Ga3 Tc1,8.447749871593109
Ga3 Te1,5.879245216289541
Ga3 Te3 As1,5.282553252949057
Ga4 Bi1 As3,5.645099677662599
Ga4 Bi1 N3,7.050439678921513
Ga4 Bi3 As1,6.475648289769987
Ga4 Bi3 N1,7.014683553670442
Ga4 Ni3 Pd1,8.724304536759698
Ga4 Ni3 Pt1,10.092546412058525
Gd1,7.935665832686046
Gd1 Ag1,8.78612762775807
Gd1 Ag1 Ge1,8.673613582125403
Gd1 Ag1 Se2,6.909175625383816
Gd1 Ag1 Sn2,8.588033865867564
Gd1 Ag2,9.327482853976344
Gd1 Ag3,9.217625602711902
Gd1 Al1,6.301011343863543
Gd1 Al1 Cu1,6.994899075665304
Gd1 Al1 Cu4,7.710240783350031
Gd1 Al1 Ga1,6.6201887257481244
Gd1 Al1 Ge1,6.5961728183740265
Gd1 Al1 Ni1,7.229129146318618
Gd1 Al1 Ni4,8.116015648612658
Gd1 Al1 O3,7.399130733331266
Gd1 Al1 Pd1,7.839915432276284
Gd1 Al1 Si1,5.649828397178011
Gd1 Al1 Zn1,6.479408517774082
Gd1 Al1 Zn1 Ge2,6.204163995768442
Gd1 Al2,5.660330478662184
Gd1 Al2 Ge2,5.597853126780632
Gd1 Al2 Ni1,6.252208788852766
Gd1 Al2 Si2,4.383026009696652
Gd1 Al3,4.891943676642173
Gd1 Al3 Cu1,5.471313949383582
Gd1 Al3 Pd2,6.93560230800342
Gd1 Al4 Ge2 Au1,5.088146033610042
Gd1 As1,7.51979149854793
Gd1 Au1,12.087069291386555
Gd1 Au2,13.92661405454632
Gd1 B1 C1,6.119651178909796
Gd1 B1 Pd3,10.138784174721678
Gd1 B1 Rh3,10.497747428035336
Gd1 B2,7.971495896015732
Gd1 B2 Ir3,15.185405538779117
Gd1 B2 Rh2 C1,8.70428975210899
Gd1 B2 Rh3,10.009611122426948
Gd1 B2 Ru3,9.963710968065906
Gd1 B6,5.3114736922575725
Gd1 Be1 O3,7.629560996578337
Gd1 Bi1,9.293760083951774
Gd1 Bi1 Pd1,9.873286513071308
Gd1 Bi1 Pt1,11.89008759413637
Gd1 Bi2 Br1 O4,8.187904483538329
Gd1 Bi2 Cl1 O4,8.042076734008294
Gd1 Bi2 I1 O4,8.29867445991187
Gd1 Bi3,10.573346714074418
Gd1 Br1,6.136468370667549
Gd1 Br1 O1,6.2757896471691605
Gd1 Br1 O2,6.143506119351557
Gd1 Br3,3.947033396460308
Gd1 C1 Br1,5.918073002556331
Gd1 C2,6.8758195402426106
Gd1 Cd1,8.342453855604024
Gd1 Cd1 Ag2,9.172518179210966
Gd1 Cd1 Au2,12.609152373679924
Gd1 Cd1 Cu1,8.60600484571615
Gd1 Cd1 Hg2,11.567738608550084
Gd1 Cd1 O3,7.442256580708544
Gd1 Cd1 Pd1,9.315835891964843
Gd1 Cd1 Pd2,10.02012021354793
Gd1 Cd1 Pt2,13.660887199550348
Gd1 Cd1 Rh2,10.553014834671057
Gd1 Cd2,8.856418463526863
Gd1 Cd3,8.516988139940098
Gd1 Cl1,5.758683514036783
Gd1 Cl1 O1,6.517832430309389
Gd1 Cl1 O2,5.293651822458985
Gd1 Cl3,4.339728517967004
Gd1 Co1 C1,8.132027926933496
Gd1 Co1 C2,8.060862239343239
Gd1 Co1 O3,7.98549583486763
Gd1 Co1 Si1,7.580966716694584
Gd1 Co1 Si3,6.245549424635057
Gd1 Co2,9.649096271101444
Gd1 Co2 B2,8.15799130878261
Gd1 Co2 B2 C1,7.867365963428016
Gd1 Co2 Ge2,8.637329507233053
Gd1 Co2 Si2,7.359666918967018
Gd1 Co3 B2,8.978725647282937
Gd1 Co4 Si1,8.441653887966877
Gd1 Co5,9.00396794272367
Gd1 Cr1 O3,7.359997181461667
Gd1 Cr2 Si2,6.565266221778468
Gd1 Cu1,8.506837673520941
Gd1 Cu1 As2,8.040959299384927
Gd1 Cu1 Ge1,8.243450206912716
Gd1 Cu1 O3,8.142018852244014
Gd1 Cu1 Pb1,10.11948931173784
Gd1 Cu1 Sb2,8.279797201910961
Gd1 Cu1 Se1 O1,7.701629870005248
Gd1 Cu1 Si1,7.091632194831163
Gd1 Cu1 Sn1,8.523813853102165
Gd1 Cu2,8.348842082524154
Gd1 Cu2 Ge2,8.206912392409901
Gd1 Cu2 Si2,7.056366647700448
Gd1 Cu4 Au1,11.0967006088647
Gd1 Cu4 Pd1,9.221720451096864
Gd1 Cu5,8.92530240644873
Gd1 Dy1,8.361230356962949
Gd1 Dy1 Al4,5.79323593962062
Gd1 Dy1 C4,7.110246244030069
Gd1 Dy1 In2,7.786570961613311
Gd1 Dy1 Ir2,14.28389900669968
Gd1 Dy1 Ni2,9.029387015384213
Gd1 Dy1 Rh2,10.663324655178634
Gd1 Dy1 Tl2,10.854189401367156
Gd1 Dy1 Zn2,8.08977374888224
Gd1 Dy3 Ni4,8.930185943684702
Gd1 Er1 Co4,10.275321058224897
Gd1 Er1 Hg2,11.645249015469416
Gd1 Er1 In2,8.395056467277811
Gd1 Er1 Ir2,14.561905028825302
Gd1 Er1 O3,8.10838010579864
Gd1 Er1 Rh2,10.829328355818507
Gd1 Er1 Ru2,11.073247211874191
Gd1 Er1 Zn2,8.322645487214341
Gd1 Er3,8.702263580473264
Gd1 F3,7.828157679775827
Gd1 Fe1 As1 O1,6.938465251324023
Gd1 Fe1 C2,7.871539662945116
Gd1 Fe1 Ni4,8.915737417720138
Gd1 Fe2,9.101615382116815
Gd1 Fe2 Ge2,8.119575230617954
Gd1 Fe2 Si2,7.100612538081285
Gd1 Fe5,8.25615985394296
Gd1 Ga1,7.531847055580251
Gd1 Ga1 I1,6.433866639861205
Gd1 Ga1 Rh2,10.390524203683508
Gd1 Ga2,7.536446113105092
Gd1 Ga2 Co1,7.984247399097355
Gd1 Ga3,7.666196936572544
Gd1 Ge1,8.062591785387296
Gd1 Ge2,7.593428768385372
Gd1 Ge2 Pd2,8.988067462311804
Gd1 Ge2 Rh2,9.343851647694224
Gd1 H1 O2,6.637329369070549
Gd1 H1 Se1,7.53676120162499
Gd1 H2,7.052287250246184