Composition,Density
Ru1 Cl3,3.237234141247606
Ru1 F3,3.078483088484703
Ru1 F6,2.830918955006563
Ru1 I1,7.246199378849178
Ru1 I2 N6,4.863264291605367
Ru1 N1,8.038617506614047
Ru1 N2,7.77860078800492
Ru1 N6 Cl2,3.26346336382494
Ru1 O2,6.818948039849536
Ru1 Pb1 O3,9.24271593776542
Ru1 Pt1,16.654979478482073
Ru1 Rh1,12.067976849438836
Ru1 Rh3,11.98555893421076
Ru1 Rh4,12.004916811807648
Ru1 W1,15.658160090581266
Ru3 Cl1,9.603669259587054
Ru3 F1,10.095503850275673
Ru3 I1,11.32903121345236
Ru3 Rh1,12.027654440930414
Ru3 W1,13.996375756533814
Ru3 W3 C2,14.144833602330372
S1,0.072679432138815
S1 Br1,2.434063666298411
S1 Br3,3.685770235601633
S1 F4,2.0506236399154134
S1 F6,2.2572553237937902
S1 N1,1.818160571155304
S1 N2 F6,1.979378957981102
S1 O2,1.4003950306506645
S1 O4,1.4685203005182543
S3 Br1,2.7738627693960374
S3 Cl1,2.199915445060115
Sb1,5.908669698900873
Sb1 As1,6.067964257083869
Sb1 As1 Ru1,8.348628684124463
Sb1 Au1 O3,9.497927454465971
Sb1 Au3,14.732551857562118
Sb1 Br1 O1,5.603226364882284
Sb1 Br6 N2,3.3167172724586664
Sb1 Cl1 O1,5.055665759412736
Sb1 Cl6 O2,2.207999453510927
Sb1 F3,4.233887899207107
Sb1 F5,4.595688824474799
Sb1 H3,5.815553595715426
Sb1 I3,4.293227467180736
Sb1 Ir1,13.028018461297666
Sb1 N1,5.165781460938985
Sb1 N1 O1,4.212452035036022
Sb1 O1 F1,5.97400115022545
Sb1 O1 F3,4.547611078717
Sb1 O2,4.10751056881523
Sb1 O2 F1,5.434887980210131
Sb1 Pb1,8.497312867052623
Sb1 Pb1 Br1 O2,7.283367765967036
Sb1 Pb1 I1 O2,7.404747643930754
Sb1 Pb1 O3,8.349657760296937
Sb1 Pb1 S2,6.419834389780068
Sb1 Pb3,9.904508406355458
Sb1 Pb3 S4,4.590860213573562
Sb1 Pb4,10.179774389340926
Sb1 Pd1,8.969190247481327
Sb1 Pd1 O3,7.201204721323514
Sb1 Pd3,10.9248897330864
Sb1 Pd6 S1,10.211593417851129
Sb1 Pd6 Se1,10.53910927892276
Sb1 Pt1,12.275771957890468
Sb1 Pt3,16.971626683572364
Sb1 Pt7,18.86655619459733
Sb1 Rh1,9.793324256214346
Sb1 Rh1 O4,6.837297727841615
Sb1 Rh3,11.427185260763146
Sb1 Ru1,9.815874508363276
Sb1 S1,2.5602975674916
Sb1 S1 I2,3.1052750800566176
Sb1 S2,2.898257101992902
Sb1 S4 N3,2.276632085991813
Sb1 Se1 N1,5.202286586865382
Sb1 Te1,6.685302873859346
Sb1 Te1 I1,5.329753169156712
Sb1 Te1 N1,5.717196967323392
Sb1 Te1 O3,6.794326249409314
Sb1 Te1 Pd2,8.84765792946926
Sb1 Te2,6.472991107061131
Sb2 Os1,10.88404457046045
Sb2 Pb1 O6,6.6198216345237935
Sb2 Ru1,8.73789454335599
Sb2 Te1,6.281420401986868
Sb2 Te1 Se2,5.728494578527522
Sb2 Te2 Se1,5.922186989628313
Sb2 Te3,6.121655030547824
Sb2 Te4 Pb1,6.668357078889525
Sb3 Au1,8.421470549548841
Sb3 Mo1,8.577863261751904
Sb3 Pb1,8.196018514834345
Sb3 W1,10.232214170705864
Sb4 S3 N2,4.735737715596988
Sc1,2.7942965058753915
Sc1 Ag1,6.208560589902137
Sc1 Ag1 Au2,0.9242901609248934
Sc1 Ag1 Ge1,6.594712217029794
Sc1 Ag1 Hg2,0.762120308759482
Sc1 Ag1 O2,5.387554022372472
Sc1 Ag1 Pd2,0.7066022299073152
Sc1 Ag1 S2,4.24762286242054
Sc1 Ag1 Se2,5.823988969687549
Sc1 Ag1 Sn1,6.870498875780204
Sc1 Ag2,7.528866830966736
Sc1 Ag2 Hg1,0.71847405651264
Sc1 Ag2 Sn1,0.6099003661903803
Sc1 Ag3,8.065746008772134
Sc1 Ag4,8.589180981558862
Sc1 Al1,2.7886880549093656
Sc1 Al1 Ag2,6.595296752470415
Sc1 Al1 Au2,10.72473960877334
Sc1 Al1 C1 O1,3.5124406412490434
Sc1 Al1 Co2,5.881790760878137
Sc1 Al1 Cu2,5.410943667280382
Sc1 Al1 Ge1,4.411194663262951
Sc1 Al1 Ir2,12.42446553082402
Sc1 Al1 N2,4.0856133968628034
Sc1 Al1 Ni2,5.675438555046211
Sc1 Al1 Pd2,7.241819968538579
Sc1 Al1 Pt2,11.7137165430801
Sc1 Al1 Rh2,7.590062761470937
Sc1 Al1 Ru2,0.5440853655386373
Sc1 Al2,3.009750069535448
Sc1 Al2 Ni1,4.089561211124011
Sc1 Al2 Os1,0.5110912718947861
Sc1 Al2 Tc1,0.3433690464593976
Sc1 Al3,2.9166302973646685
Sc1 As1,4.813229550275102
Sc1 As1 O3,4.550762080484664
Sc1 Au1,10.099370522562088
Sc1 Au1 O2,7.988987027738195
Sc1 Au2,12.935861709126224
Sc1 Au3,14.076152778551348
Sc1 Au4,15.18350900478906
Sc1 B1 C1,4.16757205548228
Sc1 B1 Ir3,14.692247947200345
Sc1 B1 N2,2.905506875636201
Sc1 B1 Pd3,8.199068527313317
Sc1 B1 Pt3,13.747759183123575
Sc1 B1 Rh3,8.589000803397774
Sc1 B2,3.660544064375377
Sc1 B2 Ir3,13.47045520260375
Sc1 Be1 Pt2,0.9202276717711008
Sc1 Be2 Pt1,0.5701302870421455
Sc1 Be5,2.3976140427755803
Sc1 Bi1,7.666073148858634
Sc1 Bi1 O3,7.405007405474687
Sc1 Bi1 Pd1,8.62829943791544
Sc1 Bi1 Pd2,10.004111867944834
Sc1 Bi1 Ru2,0.8826390735416348
Sc1 Bi3,9.61844724500262
Sc1 Br1 O1,3.654161159472919
Sc1 Br2,3.9549904016776383
Sc1 Br3,2.909994052698729
Sc1 C1,2.8333896659072995
Sc1 C2,4.222422039896862
Sc1 Cd1,5.855860322342767
Sc1 Cd1 Ag2,7.911029804167135
Sc1 Cd1 Au2,11.76677195043585
Sc1 Cd1 Cu2,7.24154710757474
Sc1 Cd1 Cu3 Se4,5.304597988078359
Sc1 Cd1 Hg2,10.640437806043272
Sc1 Cd1 Ni4,7.895794775603513
Sc1 Cd1 Pd2,8.625032547691305
Sc1 Cd1 Pt2,1.01554391634599
Sc1 Cd1 Rh2,8.934660826300092
Sc1 Cd2 Ag1,0.5256855578178379
Sc1 Cd3,7.287372471950394
Sc1 Cl1,2.54709878805976
Sc1 Cl1 O1,3.038425335568439
Sc1 Cl3,2.136561367793392
Sc1 Co1,5.682768496639224
Sc1 Co1 C2,5.227342235579926
Sc1 Co1 Ni1 Sn1,7.676943245993155
Sc1 Co1 O3,5.136443602936916
Sc1 Co1 Si1,4.64604660595614
Sc1 Co1 Te1,6.845131526473821
Sc1 Co2,6.582231541778164
Sc1 Co2 Ge1,0.6869005945547788
Sc1 Co2 Si2,5.30943181175803
Sc1 Co2 Sn1,7.798601407154579
Sc1 Co3 B2,6.554709346740869
Sc1 Co3 C1,7.010072783802575
Sc1 Cr1 C2,4.839726602830661
Sc1 Cu1,5.222540493654108
Sc1 Cu1 Au2,0.9145859561535384
Sc1 Cu1 Ge1,5.245681633586882
Sc1 Cu1 Hg2,0.7763306201297278
Sc1 Cu1 O2,4.47082336094046
Sc1 Cu1 O3,5.012149143668761
Sc1 Cu1 Pd2,8.497007918202092
Sc1 Cu1 S2,3.911385050972925
Sc1 Cu1 Se2,5.217006018059503
Sc1 Cu1 Si1,4.842930503009296
Sc1 Cu1 Sn1,6.499897103087401
Sc1 Cu2,6.252104018810717
Sc1 Cu2 Ag1,0.5523284160214941
Sc1 Cu2 Hg1,0.8674688182114667
Sc1 Cu2 Si2,5.145358570609096
Sc1 Cu3,6.878839473426828
Sc1 Cu3 Hg1 Se4,5.942060547674351
Sc1 Cu3 N3,5.983699020178552
Sc1 Cu3 Pb1 Se4,5.440857911490667
Sc1 Cu4 Sn1,7.738555395995238
Sc1 F3,2.511823579781077
Sc1 Fe1 C2,5.037027580260493
Sc1 Fe1 Ge1,5.968421850021102
Sc1 Fe1 Rh2,0.623617912062887
Sc1 Fe2,6.150369241625143
Sc1 Fe3,6.219231950514366
Sc1 Ga1,4.705646545561079
Sc1 Ga1 Ag2,0.5694716812507751
Sc1 Ga1 Co2,7.17531903708469
Sc1 Ga1 Cu1,5.82044747630381
Sc1 Ga1 Cu2,6.778371836816231
Sc1 Ga1 Ir2,13.453592465448056
Sc1 Ga1 Ni1,5.997308747096969
Sc1 Ga1 Ni2,6.986626097054527
Sc1 Ga1 Pd2,8.3076138394217
Sc1 Ga1 Pt2,12.66604125335491
Sc1 Ga1 Rh2,8.698100684478314
Sc1 Ga1 Ru2,8.631462659305052
Sc1 Ga2,5.617118533448172
Sc1 Ga2 Ir1,0.6693435141106767
Sc1 Ga2 Ni1,6.425759750960287
Sc1 Ga2 Os1,0.6964836107807056
Sc1 Ga2 Ru1,7.532532152008295
Sc1 Ga3,6.0269099870401615
Sc1 Ga5 Co1,6.567414675671117
Sc1 Ga5 Fe1,6.429560048684565
Sc1 Ga5 Ni1,6.430499341512234
Sc1 Ge1,3.2349287240932387
Sc1 Ge1 Au1,8.381543074343359
Sc1 Ge1 Os1,10.39069847748714
Sc1 Ge1 Pd1,7.112485426219333
Sc1 Ge1 Pd2,0.6521187031573739
Sc1 Ge1 Rh1,7.293373918291364
Sc1 Ge1 Rh2,8.760442557501609
Sc1 Ge1 Ru1,7.364340091073165
Sc1 Ge2,5.643091749087699
Sc1 H1 Cl1,2.74214255411043
Sc1 H1 O2,2.818426088680395
Sc1 H2,2.8566861422269403
Sc1 H3,2.944243220669791
Sc1 H4 Pd3,8.131404839234461
Sc1 Hg1,9.281450893418407
Sc1 Hg1 Au2,1.0398878394457658
Sc1 Hg1 Pd2,0.8492696267624201
Sc1 Hg1 W2,13.994539797875229
Sc1 Hg2 Pd1,0.8493367231190112
Sc1 Hg3,12.016874705964277
Sc1 I2,4.609480933626658
Sc1 I3,3.036565389314382
Sc1 In1,5.842137740027782
Sc1 In1 Ag2,7.89302039652018
Sc1 In1 Au2,11.653373239154485
Sc1 In1 Co2,0.6671166714244938
Sc1 In1 Cu2,7.198629575693916
Sc1 In1 Cu4,7.752516007939704
Sc1 In1 Hg2,0.7617477186750029
Sc1 In1 Ir2,13.334172351459832
Sc1 In1 Ni2,7.436590593160582
Sc1 In1 Ni4,7.959068705574272
Sc1 In1 P2,3.486067186244348
Sc1 In1 Pd2,8.526752583990609
Sc1 In1 Pt1,9.925070008391476
Sc1 In1 Pt2,12.688581280408425
Sc1 In1 Rh2,8.996423240522278
Sc1 In2,6.571266564104392
Sc1 In3,6.929559239660837
Sc1 In3 P4,4.025548923868688
Sc1 Ir1,11.65987101077144
Sc1 Ir2,14.005452787989112
Sc1 Ir3,16.761648475281053
Sc1 Ir3 C1,10.230803221384196
Sc1 Mn1 Au2,0.7073971180954717
Sc1 Mn1 Ge1,5.839719569213658
Sc1 Mn1 Pt2,0.952624872293652
Sc1 Mn1 Rh2,8.183531826871848
Sc1 Mn1 Si1,4.506017839412914
Sc1 N1,3.337838835388863
Sc1 Nb1,5.54529423191982
Sc1 Nb1 N1,5.810109785417488
Sc1 Nb1 Ni2 Sn2,7.328315541586617
Sc1 Nb1 Os2,13.101709864425994
Sc1 Nb1 Ru2,8.682952252731015
Sc1 Nb1 Tc2,8.355342882563942
Sc1 Ni1,5.419871561980518
Sc1 Ni1 Bi1,8.481495669185911
Sc1 Ni1 C2,5.137422507626787
Sc1 Ni1 P1,4.894902714663926
Sc1 Ni1 Sb1,6.561426159500165
Sc1 Ni1 Sn1,6.9079557886451175
Sc1 Ni2,6.624090472902525
Sc1 Ni2 Sn1,7.61787626679341
Sc1 Ni3,7.130953519050671
Sc1 Ni4 Au1,9.963305562002194
Sc1 Ni4 Sn1,8.05837943526261
Sc1 Ni5,7.335250996515854
Sc1 O1,4.50334150874125
Sc1 O1 F1,3.901423870148798
Sc1 O2,3.2966104088639594
Sc1 O3,4.105059039329238
Sc1 Os3,16.458355511408694
Sc1 P1,2.4130849576224254
Sc1 P1 Ir1,9.640127044904595
Sc1 P1 Ru1,6.48401658025164
Sc1 Pb1 Au2,0.6792512022049834
Sc1 Pb3,9.743168062086072
Sc1 Pd1,6.873732883905927
Sc1 Pd1 O3,4.879050636926505
Sc1 Pd2 Au1,0.8665320172790479
Sc1 Pd2 Pb1,0.7598184888024736
Sc1 Pd3,9.333919484578756
Sc1 Pd3 C1,8.358262044109336
Sc1 Pt1,11.005775026874286
Sc1 Pt3,16.237086859265233
Sc1 Pt3 C1,13.921060391863556
Sc1 Re1 Tc2,11.397125968859797
Sc1 Rh1,7.244989220960364
Sc1 Rh2 Pb1,10.769751268866845
Sc1 Rh3,9.598869612840824
Sc1 Rh3 C1,8.768933352993686
Sc1 Ru1,7.298257330709142
Sc1 Ru2 W1,0.966836462835346
Sc1 Ru3,9.457204298797947
Sc1 Ru3 C1,8.7583679046076
Sc1 S1,3.593258671299138
Sc1 S2,2.614189199510279
Sc1 Sb1,5.412533960550545
Sc1 Sb1 Pd1,6.997261968796528
Sc1 Sb1 Pt1,9.198599703786932
Sc1 Sb1 Rh2,9.1137839535697
Sc1 Sb1 Ru2,9.36453252753795
Sc1 Sb3,6.586740803317752
Sc1 Se1,5.002107021173253
Sc1 Se2,5.440936853953471
Sc1 Si1,2.0604510398570386
Sc1 Si1 Ag1,4.622102918496754
Sc1 Si1 Au1,8.307446526328691
Sc1 Si1 O3,4.371425835382468
Sc1 Si1 Pd2,7.525624043200271
Sc1 Si1 Pt2,11.873204884665316
Sc1 Si1 Rh2,7.864565090211465
Sc1 Si1 Ru1,6.171728403273646
Sc1 Si1 Ru2,0.5754227431897072
Sc1 Si2,3.305652996948565
Sc1 Si2 Ni2,5.206027849244996
Sc1 Si2 Tc1,0.4210317768202407
Sc1 Sn1,3.634089958705802
Sc1 Sn1 Au1,8.635190017838255
Sc1 Sn1 Au2,0.9360638263760828
Sc1 Sn1 Ir2,1.123065849528326
Sc1 Sn1 O3,5.072076719298021
Sc1 Sn1 Pd2,8.715681828792489
Sc1 Sn1 Pt1,8.70081684201396
Sc1 Sn1 Pt2,12.650857755738258
Sc1 Sn1 Rh2,9.070294965808715
Sc1 Sn1 Ru2,9.129827135819914
Sc1 Sn3,6.6250079043227785
Sc1 Ta1 Fe2,9.626467186302456
Sc1 Ta1 N1,9.348514775566516
Sc1 Ta1 N2,9.667381440056854
Sc1 Ta1 Os2,15.41153524253955
Sc1 Ta1 Ru2,11.001083150277076
Sc1 Ta1 Tc2,10.604382565195332
Sc1 Tc2 Mo1,8.808557102358824
Sc1 Tc2 W1,11.070671603815724
Sc1 Tc3,9.058684620830304
Sc1 Te1,5.551644538317359
Sc1 Te1 Rh1,7.247800893219993
Sc1 Te3,6.302259117269245
Sc1 Ti1 Co2,0.5244120818653935
Sc1 Ti1 Ni2 Sn2,6.730388962620278
Sc1 Ti1 Rh2,0.6792092047180909
Sc1 Ti1 Ru2,7.862721117687581
Sc1 Ti1 Tc2,0.5526880679665291
Sc1 Ti1 Tl2,0.6791250730715955
Sc1 Ti1 Zn2,0.3650869259788953
Sc1 Ti2 Ga4,5.8219632912746215
Sc1 Tl1 Ag2,0.6157833572165228
Sc1 Tl1 Cd1,7.379999777097741
Sc1 Tl1 Cu2,0.6701370471313226
Sc1 Tl1 F6,4.491201100945732
Sc1 Tl1 O2,7.79241564085234
Sc1 Tl1 Rh2,10.907656229938388
Sc1 Tl1 S2,5.531882594394041
Sc1 Tl1 Se2,6.354772015068117
Sc1 Tl1 Te2,6.515128443093215
Sc1 Tl2 W1,12.675810796818
Sc1 V1 Fe1,5.223436132942394
Sc1 V1 O3,4.401663411098977
Sc1 V1 Os2,0.973299454624865
Sc1 V1 Ru2,8.28784168652785
Sc1 V1 Tc2,0.5932390816018063
Sc1 V2 Ga4,6.416055157510593
Sc1 Zn1,4.846371150643663
Sc1 Zn1 Ag2,0.5097402326553523
Sc1 Zn1 Au2,0.8601288855906888
Sc1 Zn1 Cu2,6.571092649928682
Sc1 Zn1 Cu3 Se4,5.311005520261608
Sc1 Zn1 Ga1 S4,3.232947652733653
Sc1 Zn1 Hg2,0.7304311945441582
Sc1 Zn1 Ir2,0.9913747580873984
Sc1 Zn1 Ni2,6.851208636424106
Sc1 Zn1 Pd1,6.833753605620606
Sc1 Zn1 Pd2,8.24774742788222
Sc1 Zn1 Pt1,9.624131455048415
Sc1 Zn1 Pt2,12.725632600510464
Sc1 Zn1 Rh2,8.57974297253551
Sc1 Zn2 Ag1,6.912890755977651
Sc1 Zn2 Au1,9.268233175923877
Sc1 Zn2 Cd1,0.4823172276782111
Sc1 Zn2 Cu1,0.5436993239634229
Sc1 Zn2 Pd1,7.322709384593257
Sc1 Zn2 Pt1,9.779803773493592
Sc1 Zn3,6.031670532984119
Sc2 Ag1 Au1,8.166162869834489
Sc2 Ag1 Hg1,7.809966849286088
Sc2 Ag1 Ir1,8.825034763083975
Sc2 Ag1 Os1,8.87730844767636
Sc2 Ag1 Pb1,0.5124161198424384
Sc2 Ag1 Pd1,0.498528605110341
Sc2 Ag1 Pt1,0.6491943484963494
Sc2 Ag1 Rh1,0.5121060717534336
Sc2 Ag1 Ru1,6.81181232514289
Sc2 Ag1 Sn1,0.518394496884579
Sc2 Al1,3.024174766173002
Sc2 Al1 Ag1,4.605365392663385
Sc2 Al1 Au1,0.5131522137317245
Sc2 Al1 C1,3.024334287064389
Sc2 Al1 Cd1,4.537235936131904
Sc2 Al1 Co3,5.70248563929592
Sc2 Al1 Cu1,4.01969577488346
Sc2 Al1 Ga1,0.3169000368065123
Sc2 Al1 Hg1,0.4702247187840198
Sc2 Al1 In1,0.3317993092214396
Sc2 Al1 Ir1,7.13475593938704
Sc2 Al1 Os1,7.168696018401597
Sc2 Al1 Pd1,0.4103236257523495
Sc2 Al1 Pt1,0.5602049469720175
Sc2 Al1 Ru1,5.046351122653668
Sc2 Al1 Tc1,4.909928154746918
Sc2 Al1 Tl1,0.4491343113577439
Sc2 Al1 Zn1,3.938287605663144
Sc2 B1 C2,3.4749985783478934
Sc2 Be1 Os1,0.56090929610088
Sc2 Be1 Ru1,5.063294570328415
Sc2 Be1 Tc1,4.91898098755181
Sc2 Be1 Tl1,0.4001315005748568
Sc2 C1,3.1182969785364856
Sc2 C1 Cl2,2.7582170050041097
Sc2 C1 O1,4.031788478179533
Sc2 Cd1 Ag1,6.020267155341253
Sc2 Cd1 Au1,0.5717259716981173
Sc2 Cd1 Ga1,0.3753961531925013
Sc2 Cd1 Hg1,0.5457518246627
Sc2 Cd1 In1,5.855767120356568
Sc2 Cd1 Os1,0.6053621918664731
Sc2 Cd1 Pt1,0.5906281038201483
Sc2 Cd1 Ru1,0.4395089250828541
Sc2 Cd1 Tc1,6.504060031227655
Sc2 Co1,4.415786223151739
Sc2 Co1 Cu1,0.4925666616252553
Sc2 Co1 Ir1,8.770543101849126
Sc2 Co1 Ni1,0.5742397076185602
Sc2 Co1 Os1,8.707545876221799
Sc2 Co1 Pt1,0.5815196254304432
Sc2 Co1 Rh1,0.5232166510997689
Sc2 Co1 Ru1,6.491812688704603
Sc2 Cr1 N3,4.639384298389501
Sc2 Cu1 Ag1,0.4443375122353699
Sc2 Cu1 Au1,7.788821080268839
Sc2 Cu1 Hg1,0.543131169292508
Sc2 Cu1 Ir1,8.472757722671535
Sc2 Cu1 Ni1,0.619886207356691
Sc2 Cu1 Os1,8.432018904271125
Sc2 Cu1 Pd1,0.4924618946132573
Sc2 Cu1 Pt1,8.253526844112896
Sc2 Cu1 Rh1,0.5249241050822819
Sc2 Cu1 Ru1,6.225313894426317
Sc2 Cu1 Tc1,6.141147063135662
Sc2 Cu2 O5,4.492067036059849
Sc2 Ga1 Ag1,5.60586605058569
Sc2 Ga1 Au1,7.520526243852196
Sc2 Ga1 C1,4.090728722133893
Sc2 Ga1 Co1,0.4624123354860576
Sc2 Ga1 Cu1,5.099037016457179
Sc2 Ga1 Hg1,0.5391545333118021
Sc2 Ga1 Ir1,8.172057110496963
Sc2 Ga1 Ni1,0.3495956873693173
Sc2 Ga1 Os1,8.224318039640671
Sc2 Ga1 Pd1,0.4968104159197892
Sc2 Ga1 Pt1,7.937493683573741
Sc2 Ga1 Rh1,0.4967725876978393
Sc2 Ga1 Ru1,6.124344716729095
Sc2 Ga1 Tc1,6.011868428151832
Sc2 Ga3 Cu1,5.80253708141892
Sc2 Ge1 Pd1,0.4986356263772499
Sc2 Hg1 Os1,0.6364321150553386
Sc2 Hg1 Pd1,0.5945924620149997
Sc2 Hg1 Pt1,0.7557000035630185
Sc2 In1,4.870411777856091
Sc2 In1 Ag1,5.98671125340022
Sc2 In1 Au1,0.6338380298473542
Sc2 In1 C1,4.804792923579191
Sc2 In1 Cu1,0.3817600083267143
Sc2 In1 Ga1,0.4033810979471041
Sc2 In1 Hg1,0.5406722686201136
Sc2 In1 Os1,0.6117391115074318
Sc2 In1 Pt1,0.6167714264993092
Sc2 In1 Ru1,0.5468315983093781
Sc2 In1 Tc1,0.3736020515776211
Sc2 Ir1 Os1,0.9526532360764988
Sc2 Ir1 Pd1,9.201809959596526
Sc2 Ir1 Pt1,0.9266172074582012
Sc2 Ir1 Rh1,9.43842590428036
Sc2 Ir1 Ru1,9.519985977785067
Sc2 Mn1 C1,4.75193989055745
Sc2 Mn1 Ge1,4.975172423817386
Sc2 Mn1 Si1,4.395095804981639
Sc2 Mn1 Sn1,5.343496907179382
Sc2 N1 Cl2,3.086230585058144
Sc2 Ni1 Ir1,8.568913304241295
Sc2 Ni1 Os1,8.58571459248901
Sc2 Ni1 Pd1,0.4308775845281115
Sc2 Ni1 Pt1,8.341665590301915
Sc2 Ni1 Rh1,6.3048705176420725
Sc2 Ni1 Ru1,6.356180698371916
Sc2 O3,4.061805999011981
Sc2 Os1 Au1,10.963322565714146
Sc2 Os1 Pd1,9.263000609698588
Sc2 Os1 Pt1,11.464033258463692
Sc2 Os1 Rh1,0.7788463341400644
Sc2 Os1 Ru1,0.7832705819244249
Sc2 Pd1 Au1,8.557768310865953
Sc2 Pd1 Pt1,8.97760688573114
Sc2 Pd1 Rh1,0.593967366719689
Sc2 Pd1 Ru1,7.145980910325221
Sc2 Pt1 Rh1,0.7639854639501164
Sc2 Ru1 Au1,8.89583408896974
Sc2 Ru1 Pt1,9.348354901077952
Sc2 Ru1 Rh1,7.282056715375671
Sc2 Sb1,4.999792970750125
Sc2 Se3,4.384710953831707
Sc2 Si3,3.134189159318244
Sc2 Tc1 Ag1,6.685144956942676
Sc2 Tc1 Au1,8.822525116600417
Sc2 Tc1 Hg1,8.443186068338067
Sc2 Tc1 Ni1,6.216165692114997
Sc2 Tc1 Pd1,7.0289507390275165
Sc2 Tc1 Pt1,9.240595028710088
Sc2 Tc1 Rh1,0.5561678355967349
Sc2 Tc1 Ru1,0.593647125870032
Sc2 Te3,5.123488827014258
Sc2 Ti1 Tl1,0.4568057879956779
Sc2 Tl1 Ag1,7.619468332347021
Sc2 Tl1 Au1,0.639748421033197
Sc2 Tl1 C1,6.707253817362734
Sc2 Tl1 Cd1,7.407855721576458
Sc2 Tl1 Co1,0.6711227118180773
Sc2 Tl1 Cr1,0.4461823168891156
Sc2 Tl1 Cu1,0.5568141341558951
Sc2 Tl1 Fe1,0.470491391141996
Sc2 Tl1 Ga1,0.4567696274926129
Sc2 Tl1 Hg1,0.6264222218060933
Sc2 Tl1 In1,0.5746638270997041
Sc2 Tl1 Mo1,0.5451167130159293
Sc2 Tl1 Ni1,0.4008413662698052
Sc2 Tl1 Os1,0.7027532749418178
Sc2 Tl1 Pd1,0.5774964352581726
Sc2 Tl1 Rh1,0.5401776119199754
Sc2 Tl1 Tc1,8.251772460437026
Sc2 Tl1 V1,0.4675773857350432
Sc2 Tl1 Zn1,0.4593196039081016
Sc2 Zn1 Ag1,0.4099308514964748
Sc2 Zn1 Au1,7.544765341287747
Sc2 Zn1 Cd1,0.3789348533754548
Sc2 Zn1 Co1,0.3960405380768088
Sc2 Zn1 Cu1,5.023210948011268
Sc2 Zn1 Ga1,4.933585387246533
Sc2 Zn1 Hg1,0.5054998525850921
Sc2 Zn1 In1,0.3666186008381741
Sc2 Zn1 Ir1,8.160249353964957
Sc2 Zn1 Ni1,0.3008349605263614
Sc2 Zn1 Os1,8.195305252260127
Sc2 Zn1 Pd1,0.4756688622892771
Sc2 Zn1 Pt1,7.9522336275542225
Sc2 Zn1 Rh1,0.4728092524649456
Sc2 Zn1 Ru1,6.061237018749339
Sc2 Zn1 Tc1,5.92521547736125
Sc3 Al1,3.083513198358304
Sc3 Al1 C1,3.142635996148359
Sc3 As1,4.324666281688457
Sc3 B1 Pb1,5.683586790240963
Sc3 Bi1,5.980228825245481
Sc3 Cd1,4.4050491661184
Sc3 Co1 C4,4.497399711009995
Sc3 Fe1 C4,4.427777554136184
Sc3 Ga1,4.007682379499581
Sc3 Ga1 C1,3.991578136121836
Sc3 Hg1,6.095376435415869
Sc3 In1,4.443026390929162
Sc3 In1 B1,4.195806088921819
Sc3 In1 C1,4.588766197322058
Sc3 In1 N1,4.88745373059805
Sc3 In1 P4,2.9656310203174985
Sc3 Ir1 C4,6.606656858627831
Sc3 Nb1,4.269832546431914
Sc3 Ni1 C4,4.467782101494053
Sc3 Os1,6.811966931276546
Sc3 Os1 C4,6.639531180894549
Sc3 P1,3.5143143671321577
Sc3 Pb1,5.927467155469983
Sc3 Pb1 C1,6.182345080717944
Sc3 Rh1 C4,5.04633304956645
Sc3 Ru1 C4,5.055145267572208
Sc3 Sb1,4.634842823202932
Sc3 Sb2,0.0908161378521758
Sc3 Sn1,4.557960260436923
Sc3 Sn1 B1,4.342502152169774
Sc3 Sn1 C1,4.725012160595219
Sc3 Tc1,4.77962908363096
Sc3 Te1,4.872327243842928
Sc3 Te4,5.108221623029875
Sc3 Tl1,5.950770014450747
Sc3 Tl1 B1,5.633904342745025
Sc3 Tl1 C1,6.159752562768028
Sc3 V1,3.6071666512776352
Sc4 S3 N2,3.1820244945623624
Sc6 Co1 Te2,4.951990692545876
Sc6 Fe1 Sb2,4.761133714720856
Sc6 Fe1 Te2,4.9089042833193055
Sc6 Mn1 Te2,4.816681477299857
Sc6 Ni1 Te2,4.94082285600147
Sc6 Te2 Ir1,5.914947809173059
Sc6 Te2 Os1,5.887647354316976
Sc6 Te2 Rh1,5.2070290069693
Sc6 Te2 Ru1,5.154358258923507
Se1,4.024939423024076
Se1 Br1,3.6389186715224646
Se1 Br2,3.223955957001968
Se1 Br3,3.875493744839585
Se1 Br6 N2,3.575420895560056
Se1 Br6 O2,4.158781042026002
Se1 I2,3.925633821610716
Se1 N2 Cl6,2.2070809757298284
Se1 S1,4.632989802013678
Se2 Cl2 O5,3.5014130359621625
Se3 Br1,4.289279997495176
Si1,1.8343283783801496
Si1 Ag1 O3,6.432114179278898
Si1 Ag1 Pt5,16.452091075875916
Si1 Ag3,8.412727985054694
Si1 As3,3.3921345008679515
Si1 Au3,14.487790809790644
Si1 B1,2.524396216179016
Si1 B1 Au1,8.74438448367475
Si1 B1 O3,3.35776211805348
Si1 B1 Pb1,6.479661950060026
Si1 B6,2.185428209160412
Si1 Bi1 O3,8.63571489384692
Si1 Bi3,9.728680277025576
Si1 Br3,2.9104210522897964
Si1 C1,3.170121947632244
Si1 C1 N1,3.330022208863549
Si1 C2,2.47823236008665
Si1 C3,2.30332787518596
Si1 F4,1.9756821166735308
Si1 Ge1,3.821754688858552
Si1 Ge3,5.502021638596982
Si1 H1,1.2770575171443816
Si1 H2 O1,0.7345319936261243
Si1 H8,0.5069510794667371
Si1 Hg1 O3,9.333758081494263
Si1 Hg1 P2,5.552186025623611
Si1 Hg3,10.93843695564398
Si1 I3,3.206838288764309
Si1 Ir1,12.711201680855805
Si1 Ir2,16.333540050556905
Si1 Ir3,17.8698551780242
Si1 Mo1,6.873706019722702
Si1 Mo1 O3,5.8961021910090725
Si1 Mo3,8.812461272463066
Si1 N2 F6,2.0159833038656587
Si1 Ni1,5.981087134916961
Si1 Ni1 N2,5.066721199986891
Si1 Ni1 Pd1,8.489444479237635
Si1 Ni1 Sb1,6.182523518015905
Si1 Ni2,7.353357289822568
Si1 Ni3,7.64247847064012
Si1 Ni6 Ge1,8.503403091130089