Composition,Density
Gd1 H3,6.606331163600284
Gd1 Hg1,11.174485472244877
Gd1 Hg3,12.64272169561723
Gd1 Ho1 Al6,5.127565379888013
Gd1 Ho1 Ir2,14.440847670172545
Gd1 Ho1 Tl2,10.986745442263231
Gd1 Ho3,8.501658612026882
Gd1 In1,8.059250636625352
Gd1 In1 Au1,10.89580277603881
Gd1 In1 Au2,11.44041396460142
Gd1 In1 Cu2,8.909986880078243
Gd1 In1 Cu4,9.087291509285055
Gd1 In1 Ir1,11.66719511748833
Gd1 In1 Ni4,9.524641809741013
Gd1 In1 Pd1,9.257366319327554
Gd1 In1 Pd2,9.99667547281513
Gd1 In1 Pt1,9.191924703059748
Gd1 In1 Pt2,13.09733130714048
Gd1 In1 Pt4,15.428394087476882
Gd1 In1 Rh1,9.41763739324214
Gd1 In2 Rh1,9.085750422566608
Gd1 In3,8.221971006044347
Gd1 In5 Rh1,8.351663862434657
Gd1 Ir3,18.03747139010831
Gd1 Lu1 Ag2,9.474171519375616
Gd1 Lu1 Al4,6.09310619419708
Gd1 Lu1 Cd2,9.011882717054297
Gd1 Lu1 Cu2,9.326935674274544
Gd1 Lu1 Ir2,15.024506743630033
Gd1 Lu1 Rh2,11.166725787068248
Gd1 Lu1 Ru2,11.494736901311503
Gd1 Mg1,5.379275658068197
Gd1 Mg1 Ag2,7.46915244542647
Gd1 Mg1 Au1,8.901606366762477
Gd1 Mg1 Au2,11.113970395508987
Gd1 Mg1 Cd2,7.073836183990402
Gd1 Mg1 Ga1,5.939056629265403
Gd1 Mg1 Hg2,10.220000091060603
Gd1 Mg1 In1,6.182816541878912
Gd1 Mg1 Ni4,8.026287437385887
Gd1 Mg1 Pd1,7.125256738899974
Gd1 Mg1 Pt1,9.48269331576361
Gd1 Mg1 Rh2,8.90490950791349
Gd1 Mg1 Tl1,8.050084951740946
Gd1 Mg1 Zn2,6.327162034293504
Gd1 Mg2,4.432037904762904
Gd1 Mg2 Ag1,5.625116529129446
Gd1 Mg3,3.9762087783726026
Gd1 Mn1 Si1,7.106220681345018
Gd1 Mn2,9.214798417109286
Gd1 Mn2 Ge2,7.955804214711856
Gd1 Mn2 Si2,6.917617017110612
Gd1 Mn3,8.034024031153557
Gd1 N1,9.164612691797457
Gd1 Ni1,8.616211914976377
Gd1 Ni1 As1,8.5665878911548
Gd1 Ni1 Bi1,10.132285706478456
Gd1 Ni1 C2,7.954873684943377
Gd1 Ni1 Sb1,8.567930957787706
Gd1 Ni2,9.775803011844118
Gd1 Ni2 As2,8.607951820496744
Gd1 Ni2 B2 C1,7.738100830211668
Gd1 Ni2 Ge2,8.42311516428782
Gd1 Ni2 P2,7.824737448534616
Gd1 Ni2 Sb2,8.595040377874637
Gd1 Ni4 Au1,11.29599395763612
Gd1 Ni5,9.19261620213246
Gd1 O1,7.339499098829338
Gd1 O1 F1,7.272499610087264
Gd1 O2,6.839297430529564
Gd1 O3,5.889186259907824
Gd1 P1,6.680095885129782
Gd1 P1 Pd1,8.422911899730888
Gd1 P1 Pt1,10.78011084293123
Gd1 P2 Ru2,8.740640239592313
Gd1 Pb1 Au1,11.297907876050424
Gd1 Pb3,10.880263013873678
Gd1 Pd1,9.407630898290394
Gd1 Pd2 Pt1,13.120512597392516
Gd1 Pd3,10.989244587778114
Gd1 Pt1,12.717929488683552
Gd1 Pt2,15.72389785531124
Gd1 Pt3,17.256891094948458
Gd1 Rh1,10.289668077613207
Gd1 Rh1 O3,8.216369643660476
Gd1 Rh2,10.997497391489755
Gd1 Rh3 C1,10.647431962982282
Gd1 Rh5,10.724218542661244
Gd1 Ru1 C2,8.770527478237499
Gd1 Ru2,10.906260213896577
Gd1 S1,7.203646573125033
Gd1 S1 F1,6.747565260287819
Gd1 S1 I1,4.611144109758397
Gd1 S2,6.031842764865719
Gd1 Sb1,7.419521852144428
Gd1 Sb1 Pd1,9.169642240057646
Gd1 Sb1 Pt1,10.25001263259349
Gd1 Sc1 Ge1,6.381354277647796
Gd1 Sc1 Si1,5.534263931464773
Gd1 Se1,7.763412874901705
Gd1 Se2,7.423618295702121
Gd1 Si1,6.899144562268062
Gd1 Si1 Ag1,7.786341379636105
Gd1 Si1 O3,7.464244455265322
Gd1 Si1 Pd1,8.259559197550319
Gd1 Si1 Pt1,10.255945042561189
Gd1 Si1 Ru1,8.032282661134179
Gd1 Si2,6.050125559249092
Gd1 Si2 Ag2,7.522355839884725
Gd1 Si2 Au2,10.677887761496358
Gd1 Si2 Ir2,11.755959716730302
Gd1 Si2 Ni1,7.152972163154563
Gd1 Si2 Ni2,7.28980643057153
Gd1 Si2 Os2,11.549403005901777
Gd1 Si2 Pd2,8.083969435680592
Gd1 Si2 Pt2,11.02230985634898
Gd1 Si2 Rh2,8.334316441980867
Gd1 Si2 Rh3,8.835560894486424
Gd1 Si2 Ru2,8.125765217873402
Gd1 Si3 Ir1,8.263298368928012
Gd1 Sn1 Au1,9.973988586787453
Gd1 Sn1 Ge1,7.838645246429984
Gd1 Sn1 Pd2,10.131603828753848
Gd1 Sn1 Pt1,11.634044660398231
Gd1 Sn1 Pt2,13.20513551438436
Gd1 Sn1 Rh2,10.587595615990836
Gd1 Sn2,8.07544863759268
Gd1 Sn3,7.143449785750475
Gd1 Tc3,11.064832574343455
Gd1 Te1,7.648810452487412
Gd1 Te2,7.862430898249697
Gd1 Te2 Cl1 O5,6.6022649921552885
Gd1 Ti1 Ge1,7.066315854994772
Gd1 Tl1,10.455872110759149
Gd1 Tl1 Pd1,11.146408423544534
Gd1 Tl1 S2,6.467000105981059
Gd1 Tl1 Se2,7.113139432942457
Gd1 Tl1 Te2,7.101931052910508
Gd1 Tl1 Zn1,9.798695737486469
Gd1 Tl3,11.519021509641089
Gd1 Tm1 Cd2,8.65601529047952
Gd1 Tm1 Ir2,14.722847478138084
Gd1 Tm1 Rh2,10.990341845598053
Gd1 Y1 Al4,4.776045291481781
Gd1 Y1 Co4,8.158381115832126
Gd1 Y1 Cu2,7.35779867154415
Gd1 Y1 Cu4,7.380011314200537
Gd1 Y1 H4,5.982359402066034
Gd1 Y1 Hg2,10.219610420426234
Gd1 Y1 Ir2,12.75641389527092
Gd1 Y1 O2,6.171099945192744
Gd1 Y1 Rh2,9.074833392922606
Gd1 Y1 Ru2,9.273494871183702
Gd1 Y3,5.318243104901116
Gd1 Zn1,7.886509119761654
Gd1 Zn1 As1 O1,7.206815381374429
Gd1 Zn1 Ga1,7.771912916324922
Gd1 Zn1 Ge1,7.565063901181713
Gd1 Zn1 In1,7.919307251933299
Gd1 Zn1 P1 O1,6.533983624629969
Gd1 Zn1 Pd1,8.90042014711057
Gd1 Zn1 Si1,6.847518174670855
Gd1 Zn2,7.679366265805859
Gd1 Zn2 Ga2,7.574441323776705
Gd1 Zr1,7.594651575784616
Gd1 Zr1 O3,6.826865628840743
Gd1 Zr1 Ru2,9.925275051103606
Gd1 Zr1 Sb1,7.86297364300509
Gd2 Ag1 Au1,10.53328163591218
Gd2 Ag1 Hg1,10.025733132163817
Gd2 Ag1 Ir1,11.341652728737644
Gd2 Ag1 Rh1,9.610036049303664
Gd2 Ag1 Ru1,9.779163200076946
Gd2 Al1 Cd1,7.265883581177719
Gd2 Al1 Co2,8.087557882192769
Gd2 Al1 Fe3,8.28875687771397
Gd2 Al1 Ni2,7.871908423452968
Gd2 Al1 Zn1,6.955544671826323
Gd2 Al4 Co1 Ge2,6.163830544503808
Gd2 B3 C2,7.058767625830798
Gd2 Bi1 O2,8.63150917813571
Gd2 C1,7.676989498437972
Gd2 C1 Br1,7.778265049970155
Gd2 C1 Cl1,7.369707101288497
Gd2 C1 Cl2,5.657370869615885
Gd2 C1 F2,7.650174210219824
Gd2 C1 I1,7.981973553590147
Gd2 C1 N2 O2,6.199745269610589
Gd2 Cd1 Hg1,9.887231248936692
Gd2 Cd1 In1,8.420819501705367
Gd2 Co1 B3,8.221031869669645
Gd2 Co1 Ni3,8.624893310614548
Gd2 Cr2 C3,7.780403487777875
Gd2 Cr2 O5,7.546774946426154
Gd2 Cu1 Au1,10.342209308298102
Gd2 Cu1 Os1,11.362492648644444
Gd2 Cu1 Ru1,9.66218444253057
Gd2 Ga1 Ag1,8.336965238561714
Gd2 Ge1 Br2,5.857552886132307
Gd2 In1,8.087442723590469
Gd2 In1 Ag1,8.424516511731651
Gd2 In1 Hg1,10.53674499001647
Gd2 In1 Ni2,8.420421095008988
Gd2 Ir1 Au1,13.063759466705518
Gd2 Ir1 Pd1,11.867539856189827
Gd2 Ir1 Rh1,12.269566508616528
Gd2 Ir1 Ru1,12.344071416810165
Gd2 Mg1,6.235123933333864
Gd2 Mg1 Al1,5.920621825019861
Gd2 Mg1 Cd1,6.988138307199738
Gd2 Mg1 In1,6.908991650461132
Gd2 Mg1 Ru1,7.856514531630016
Gd2 Mg1 Tl1,8.100922126789618
Gd2 Mg2 O5,6.625190672832506
Gd2 Mn1 Ga6,7.844391128954816
Gd2 Mo2 C3,8.45000784388674
Gd2 Ni1 Ir1,11.56108064237282
Gd2 Ni1 O4,8.196925609453496
Gd2 Ni1 Ru1,9.888141221054024
Gd2 Ni2 Sn1,8.915798706896348
Gd2 O3,7.244282957055915
Gd2 Pd1 Rh1,10.012998338176503
Gd2 Pd1 Ru1,10.209671970582074
Gd2 Re2 Si2 C1,10.151111017247938
Gd2 Ru1 Rh1,10.4629242315341
Gd2 S1 O2,7.24393362894811
Gd2 Sb1 O2,7.61087872845289
Gd2 Se1 O2,7.7152202870325075
Gd2 Si3,6.030044217386869
Gd2 Si3 Ni1,6.616012092364858
Gd2 Te1 O2,7.825607218137863
Gd2 Tl1,9.733822753889545
Gd2 Tl1 Ag1,9.85574730432922
Gd2 Tl1 Cd1,7.648236591138906
Gd2 Tl1 Hg1,10.999405144694544
Gd2 Tl1 Zn1,9.247495005692132
Gd2 Zn1 Ag1,8.27813765471165
Gd2 Zn1 Ga1,7.87221116235718
Gd2 Zn1 Hg1,9.645502607615722
Gd2 Zn1 In1,7.985194706436315
Gd2 Zn1 Rh1,8.98544589576782
Gd2 Zn1 Ru1,9.234887329124245
Gd3 Ag1,8.503278698567916
Gd3 Al1,7.468193126259012
Gd3 Al1 C1,7.023884498580841
Gd3 Al1 N1,5.167940339844754
Gd3 Au1,10.025433674151856
Gd3 Cd1,8.234247477768934
Gd3 Co2 Ge4,8.396307333600443
Gd3 Dy1,8.705751073456025
Gd3 Er1,8.28686517796274
Gd3 Er1 Ni4,8.94739387521842
Gd3 Ga1,8.316151735143885
Gd3 Ga1 C1,7.743652802578916
Gd3 Ho1,8.315069038557995
Gd3 I1,8.100941268016504
Gd3 In1,8.319657649084412
Gd3 In1 C1,5.480622761049163
Gd3 In1 N1,8.482525901838558
Gd3 Lu1,8.491455108499869
Gd3 Mn3 Ga2 Si1,7.43921351083499
Gd3 Pb1 C1,5.914961037780243
Gd3 Si1,8.134430517439126
Gd3 Sn1 C1,8.230120239813193
Gd3 Tl1 C1,9.192167421997118
Gd3 Y1,7.249541704307338
Gd3 Zn1,7.960553440558678
Gd3 Zn5 Ge1,7.746984236276289
Ge1,3.0890649653867857
Ge1 As1,5.804404726809452
Ge1 As1 Au1,8.41013669893859
Ge1 As1 W1,10.65826549694284
Ge1 As3,5.482334507297581
Ge1 Au3,14.853214654820071
Ge1 B1,4.839802884581213
Ge1 B1 O3,5.517727488119991
Ge1 Bi1 O3,8.895268820351014
Ge1 Bi1 Pd6,11.447816047404954
Ge1 Bi2 Te4,7.2279785266689025
Ge1 Bi3,10.046042852736113
Ge1 Br2,4.096619141917173
Ge1 C1,5.760897100254253
Ge1 C1 N2,3.3448736212105623
Ge1 Cl1 F1,4.087541163307168
Ge1 F4,2.723976096677008
Ge1 H4,1.906721376702363
Ge1 I2,4.112266268035376
Ge1 Ir1,13.693475932246066
Ge1 Mo1 As1,7.839337843688874
Ge1 Mo3,9.740742815086204
Ge1 N1 Cl3,1.185020551667622
Ge1 N2 F6,2.9192646772206325
Ge1 O2,4.036332908275182
Ge1 P1,3.667034084876429
Ge1 P3,3.736778323909968
Ge1 Pb1 N2,9.022726532287878
Ge1 Pb1 O3,9.259412950330407
Ge1 Pb3,9.831127236158192
Ge1 Pb3 O5,8.02282433129631
Ge1 Pd1,8.924258471875575
Ge1 Pd1 O3,7.049630161449204
Ge1 Pd2,10.18840164018511
Ge1 Pt1,13.12468517614386
Ge1 Pt2,16.17220572760259
Ge1 Pt3,17.352776321463992
Ge1 Rh1,9.4084237695182
Ge1 Rh3,11.021994043190404
Ge1 Ru1,9.826555984308929
Ge1 S1,3.954535749023095
Ge1 S2,2.98223368889074
Ge1 Sb1,4.856223619520921
Ge1 Sb1 Te3,6.334706398086518
Ge1 Sb2 Te4,5.817817677892728
Ge1 Sb3,7.07602732528748
Ge1 Sb4 Te4,6.288892352067921
Ge1 Se1,5.121945771380412
Ge1 Se2,4.305992283547147
Ge1 Te1,0.5980869089185615
Ge1 Te1 O3,6.939503104568603
Ge1 Te1 Pb2 Se2,7.324731767360612
Ge1 Te2 Pb1,6.974977597820796
Ge1 Te4 As2,5.9829184850180654
Ge1 Te4 Pb3,7.435517388580034
Ge2 Bi2 Te5,6.463459254369242
Ge2 Mo1,8.648910398969074
Ge2 N2 O1,4.48521520070488
Ge2 O3,5.970016550312758
Ge2 Os1,11.527028501555485
Ge2 Pt1,10.32070676394595
Ge2 Sb2 O5,6.351855776811668
Ge2 Sb2 Te5,5.937337921145016
Ge2 Se1 S1,4.593964678070553
Ge2 Te1 Se1,5.9091742505319225
Ge2 Te5 As2,6.081727514477975
Ge2 W1,11.799779503495785
Ge3 As1,6.251197444240198
Ge3 As4,5.128869621364297
Ge3 Au1,8.787229960790292
Ge3 B1,5.740872386422936
Ge3 C1,5.974350386427021
Ge3 F1,6.027859312190539
Ge3 H1,5.787062792349932
Ge3 Ir1,10.325321455364705
Ge3 Mo1,7.716844296559778
Ge3 O1,5.8661507452055135
Ge3 Os1,10.399150493068364
Ge3 P1,5.637952907463332
Ge3 Pb1 Se4,5.834948521046444
Ge3 Pd1,7.579003217560777
Ge3 Pt1,8.85186745191191
Ge3 Rh1,7.909308762886906
Ge3 Sb1,6.490122745008725
Ge3 Te1,6.28351976549558
Ge3 Te2 Se1,5.971026122523702
H1 Au1 O2,6.9727650415822415
H1 Br1,2.331499779036533
H1 C1,1.0458981387924484
H1 C1 N1,0.9683393154627958
H1 C2,1.4302578964073382
H1 C3,1.6814552093698003
H1 Cl1,1.1408482645106668
H1 F1,1.7215413377717068
H1 I1 N2,2.708538558240319
H1 I3,2.378165131906544
H1 Ir1,17.20621035999171
H1 Os3,18.366654019710047
H1 Pb1,8.629053156483593
H1 Pb1 Cl1 O1,5.891756630303988
H1 Pb1 I3,4.016735818865265
H1 Pd1,9.276812227294194
H1 Pd3,9.76451066779384
H1 Pt3,17.479501381569143
H1 Rh1,10.321975357569094
H1 W1,17.105836889719654
H1 W2 O6,6.63563261628128
H1 W3,15.92807092982386
H2,0.0236701278504476
H2 C2 S1,2.449979645598401
H2 O1,1.5183229676779757
H2 S1,2.339949168605256
H2 Se1,4.563624580907049
H3 Br1 O1,2.329276515930034
H3 C1 I1,0.0635524366893041
H3 Cl1 O1,1.4193980805092987
H3 Pb1,8.510065074629457
H3 Pd4,10.29414211662757
H3 Pt1,11.093372842055546
H3 S1,1.7734975444257737
H3 W1,8.990844851208388
H4 Br1 N1,2.4273308466102423
H4 C1,0.4330682613662343
H4 I1 N1,2.467163368613305
H4 N1,0.4920907245253343
H4 N1 Cl1,1.5240790751255149
H4 N2 O3,1.2121016697773408
H4 Pb1 I3 N1,3.895245017134397
H4 Pd3,8.35177637527348
H6 C1 N1 F1,1.0688585572075322
He1,0.4210242614550255
Hf1,13.172296499762645
Hf1 Ag1,12.03517773305554
Hf1 Ag1 Au2,1.1615612881262103
Hf1 Ag1 B1,8.957842786365353
Hf1 Al1,8.963278336785484
Hf1 Al1 Au2,13.698361966870792
Hf1 Al1 Co2,9.779117912283146
Hf1 Al1 Cu2,9.277709661367702
Hf1 Al1 Fe2,9.628102582268877
Hf1 Al1 Ir2,15.347243416597436
Hf1 Al1 Ni1,9.371392881261178
Hf1 Al1 Ni2,9.530654492837588
Hf1 Al1 Pd2,10.44984767592138
Hf1 Al1 Pt1,12.565655183652716
Hf1 Al1 Pt2,13.702664436632936
Hf1 Al1 Rh2,10.871054517369076
Hf1 Al1 Ru2,10.977756067895658
Hf1 Al1 Tc2,0.7790988702046192
Hf1 Al1 W4,14.577326769476386
Hf1 Al1 Zn1,8.907977587862787
Hf1 Al2 Zn1,7.391728884848471
Hf1 Al3,6.195578185850283
Hf1 Al5 Ni2,6.099016162020791
Hf1 As1,10.507385138519636
Hf1 As1 Os1,14.748866205422528
Hf1 As1 Pd1,11.500863168350383
Hf1 As1 Rh1,9.735843924520418
Hf1 As1 Ru1,11.933276341899154
Hf1 Au1,13.671950778973208
Hf1 Au2,16.855453370215443
Hf1 Au3,17.270665047114395
Hf1 B1,11.104978646429895
Hf1 B1 C1,11.815914507270987
Hf1 B1 O3,9.806890138288503
Hf1 B1 Rh3,11.68366730269704
Hf1 B2,11.12171907625162
Hf1 B6,6.145907699637827
Hf1 Be1,9.945969621839252
Hf1 Be1 Au2,0.9663726420144924
Hf1 Be1 Ir2,1.2203498073825638
Hf1 Be1 O3,9.620466885977176
Hf1 Be1 Rh2,11.275350052437668
Hf1 Be1 Si1,8.428040443206498
Hf1 Be2,8.279819553641453
Hf1 Be2 Bi1,8.974902754058585
Hf1 Be2 Pt1,0.9676452127956446
Hf1 Be5,6.088097587910439
Hf1 Bi1 Rh1,11.306367771226151
Hf1 Bi3,11.844725805014686
Hf1 Br1 N1,6.767895257030403
Hf1 Br3,4.359059555870804
Hf1 C1,9.868235893097628
Hf1 Cd1,9.588844308692291
Hf1 Cd1 Au2,1.0958166021104343
Hf1 Cd1 Cu2,10.792363980303888
Hf1 Cd1 O3,8.176531700339828
Hf1 Cd1 Pd2,0.9565308896307608
Hf1 Cd1 Rh2,12.201588446201804
Hf1 Co1,12.437685344140997
Hf1 Co1 N2,11.04490747211255
Hf1 Co1 Sb1,9.5449092009584
Hf1 Co1 Sn1,11.038233648049452
Hf1 Co2,12.089388991226564
Hf1 Co2 Sb1,0.956204343482298
Hf1 Co2 Si2,8.748421576955646
Hf1 Co2 Sn1,11.277754339615251
Hf1 Co3,11.291575815017504
Hf1 Co3 B2,10.172076255761244
Hf1 Co7,10.21823486573864
Hf1 Cr1 Ag1 S4,5.377507980851982
Hf1 Cr1 Au2,1.0524886476796995
Hf1 Cr1 Cu1 S4,5.531515052598572
Hf1 Cr2,10.507989154066475
Hf1 Cu1 Au2,1.0659018321511833
Hf1 Cu1 Ge1,10.756084091676737
Hf1 Cu1 Ge1 As1,9.77943603099629
Hf1 Cu1 Ge2,9.780603749002678
Hf1 Cu1 Hg2,14.073064145513133
Hf1 Cu1 P1,7.290193099932005
Hf1 Cu1 Rh2,0.9524865611847
Hf1 Cu1 Si1 As1,8.963694972051636
Hf1 Cu1 Si2,8.099192050224362
Hf1 Cu1 Sn1,10.710440401772807
Hf1 Cu2 Au1,1.4482519083839
Hf1 Cu2 P2,7.94181056953066
Hf1 Cu3,10.77803590267373
Hf1 Fe1 F6,4.227693304542794
Hf1 Fe1 Ge1,11.121270942207866
Hf1 Fe1 N2,11.19526486202426
Hf1 Fe2,11.265689378343376
Hf1 Fe2 Sn1,11.322827703264348
Hf1 Ga1 Au1,13.301477510799348
Hf1 Ga1 Au2,1.0829670052854217
Hf1 Ga1 Co1,11.120797258668365
Hf1 Ga1 Co2,11.089261237917771
Hf1 Ga1 Cu1,10.602489646092428
Hf1 Ga1 Cu2,0.8180835624922079
Hf1 Ga1 Ir2,16.336392000360316
Hf1 Ga1 Ni1,11.020568010598067
Hf1 Ga1 Ni2,10.844734010232928
Hf1 Ga1 Pd2,0.8859605385278712
Hf1 Ga1 Rh1,11.542533501358031
Hf1 Ga1 Rh2,11.953775703642195
Hf1 Ga1 Ru2,12.05564707542566
Hf1 Ga2 Ag1,10.01702548972847
Hf1 Ga3,9.296638515950516
Hf1 Ga4 Co1,7.975992533075777
Hf1 Ga5 Co1,8.55341205071523
Hf1 Ga5 Ni1,8.4496563279295
Hf1 Ge1 B2,8.187538672769055
Hf1 Ge1 Os1,14.699542419082986
Hf1 Ge1 Pt1,11.912311593334948
Hf1 Ge1 Rh1,11.799636426780978
Hf1 Ge1 Rh2,0.9741232874882602
Hf1 Ge1 Ru1,11.839941186618097
Hf1 Ge1 Ru2,12.243516366681844
Hf1 Ge1 S1,8.927945804216368
Hf1 Ge1 Se1,9.575608648890658
Hf1 Ge1 Te1,9.69057091098682
Hf1 Ge2,9.869969362766131
Hf1 H2,11.465647802373155
Hf1 H3,9.634101759551244
Hf1 Hg1 O3,10.1204302552704
Hf1 I1 N1,7.387807664148427
Hf1 I3,5.40057150534391
Hf1 In1 Au2,14.519371944052056
Hf1 In1 Co2,11.383238872306542
Hf1 In1 Cu2,10.309367962222538
Hf1 In1 Ni2,10.556011141641845
Hf1 In1 Pd2,11.270861713853444
Hf1 In1 Pt2,15.136291237986775
Hf1 In1 Rh2,12.09739546024419
Hf1 In1 Ru2,1.092548195743822
Hf1 Ir1,17.03764111781878
Hf1 Ir3,20.070228054803472
Hf1 Mg1,4.769282428137999
Hf1 Mg1 Au2,13.161858319860992
Hf1 Mg1 Co2,0.7516293934764189
Hf1 Mg1 Cu2,0.6834683613057586
Hf1 Mg1 Hg2,0.8628142768022389
Hf1 Mg1 Ir2,14.939607541964476
Hf1 Mg1 N2,8.462748937319938
Hf1 Mg1 Ni2,0.8316478574897984
Hf1 Mg1 O3,6.165888288342769
Hf1 Mg1 Pd2,9.954600977466312
Hf1 Mg1 Pt2,1.1228835887766615
Hf1 Mg1 Rh2,10.447817894087896
Hf1 Mg1 Zn2,0.556375133669117
Hf1 Mg3,4.695148331138621
Hf1 Mg3 O4,6.06990879371734
Hf1 Mg6 C1,3.127726116532485
Hf1 Mg6 Ni1,4.00784195425937
Hf1 Mn1 Co2,0.9036445780269994
Hf1 Mn1 F6,4.048713441184805
Hf1 Mn1 Ge1,10.355633702230032
Hf1 Mn1 Ir2,1.248968911566747
Hf1 Mn1 N2,11.024432098581796
Hf1 Mn1 Rh2,11.465978664978469
Hf1 Mn1 Tl1,10.75726568687613
Hf1 Mo1,12.400027359926678
Hf1 Mo1 C2,10.8486487735023
Hf1 Mo1 P1,10.709118366970957
Hf1 Mo1 Se1,9.140895015849432
Hf1 Mo2,11.274808163534129
Hf1 Mo4,11.098800316431388
Hf1 N1,10.803945139832765
Hf1 N1 Cl1,6.899026436060236
Hf1 N2,9.765632530166249
Hf1 Nb1,11.200090133925393
Hf1 Nb1 B2,9.921939873443003
Hf1 Nb1 B4,9.03245485248128
Hf1 Nb1 C1 N1,10.57142714212666
Hf1 Nb1 C2,10.261089831989311
Hf1 Nb1 N2,10.912650625559788
Hf1 Nb1 Re2,1.2146407651217104
Hf1 Nb1 Ru2,0.9854095463446264
Hf1 Nb1 Tc2,11.527850294527846
Hf1 Nb2 V1 C4,8.668556261385895
Hf1 Ni1,12.18394482113595
Hf1 Ni1 Ge1,8.974490586381675
Hf1 Ni1 Pb1,12.009064382285194
Hf1 Ni1 Sb1,9.58020581527726
Hf1 Ni1 Sn1,8.94007943550108
Hf1 Ni2,11.89879820074143
Hf1 Ni2 Au1,1.275347737590849
Hf1 Ni2 Sb1,10.810512900424078
Hf1 Ni2 Sn1,11.15924860982762
Hf1 Ni3,11.425720199732693
Hf1 Ni5,10.606996786940172
Hf1 O2,9.18052402989098
Hf1 Os1,17.691256391406036
Hf1 Os3,19.828762867743084
Hf1 P1,9.61707184084099
Hf1 P1 Os1,14.475670108445362
Hf1 P1 Ru1,11.370875491218811
Hf1 P3,6.796181321056433
Hf1 Pb1 N2,10.438640051499096
Hf1 Pb1 O3,10.036049633632498
Hf1 Pd1,12.629880160423864
Hf1 Pd1 Au2,1.1918525494619818
Hf1 Pd2,12.639163627982445
Hf1 Pd3,12.748883903567233
Hf1 Pd5,4.73528606624943
Hf1 Pt1,16.38616663728141
Hf1 Pt1 Au2,1.3457016196418186
Hf1 Pt1 Pb1,13.803052151353684
Hf1 Pt3,19.32649687971248
Hf1 Re1 Si1,13.67079061174822
Hf1 Rh1,13.277643936174565
Hf1 Rh3,13.104408081912483
Hf1 Ru1,13.595489341688484
Hf1 Ru3,12.910263466324048
Hf1 S1,10.176248356772213
Hf1 S1 O1,9.243893394595434
Hf1 S2,5.322546942557588
Hf1 S3,5.091838099042705
Hf1 Sb1,11.160826796506791
Hf1 Sb1 Rh1,9.800230906146355
Hf1 Sb1 Ru1,10.56733185497252
Hf1 Sb2,9.506405608428592
Hf1 Sb3,8.939896258218486
Hf1 Sb4 Mo1,9.000810331781194
Hf1 Sc1,7.996028226637978
Hf1 Sc1 Au2,0.923498460342543
Hf1 Sc1 Co2,9.10818048657586
Hf1 Sc1 Ge4,7.720636398265425
Hf1 Sc1 Hg2,0.8824075957613926
Hf1 Sc1 Ir2,14.565176571464596
Hf1 Sc1 Ni2,0.7913097700467111
Hf1 Sc1 Os2,14.7907477687169
Hf1 Sc1 Pd2,0.8607779520288227
Hf1 Sc1 Rh2,10.324960814666577
Hf1 Sc1 Ru2,10.5200302842034
Hf1 Sc1 Si2,6.610036209435426
Hf1 Sc1 Tc2,0.8274068746955519
Hf1 Sc1 Tl2,0.8462436919842521
Hf1 Sc1 Zn2,0.5537476540339856
Hf1 Se1 S1,6.153388751240047
Hf1 Se2,6.538055538143464
Hf1 Se3,6.660319846606368
Hf1 Si1,9.983668576273503
Hf1 Si1 Ni1,8.704179027768067
Hf1 Si1 Os1,13.886093846302224
Hf1 Si1 Pt1,12.112086705454605
Hf1 Si1 Ru1,10.767829922301695
Hf1 Si1 Ru2,11.451379355694492
Hf1 Si1 S1,7.898134927097793
Hf1 Si1 Se1,8.568019226184711
Hf1 Si1 Tc2,0.8100559259526493
Hf1 Si1 Te1,8.002290233291768
Hf1 Si1 W4,14.710350608494638
Hf1 Si2,7.923770467997716
Hf1 Si2 Br1,6.701328804603499
Hf1 Si2 Ni2,8.567434692358479
Hf1 Sn1,10.84084368242121
Hf1 Sn1 Au2,1.179316906006323
Hf1 Sn1 Ir1,14.02441611804002
Hf1 Sn1 Pd1,10.40380953973438
Hf1 Sn1 Pd2,0.9192873065824596
Hf1 Sn1 Pt1,11.812843698018112
Hf1 Sn1 Rh1,11.594745775429324
Hf1 Sn1 Rh2,12.111804479445643
Hf1 Sn1 Ru2,12.359050163940552
Hf1 Sn2,10.114373753851496
Hf1 Ta1,14.9791769406944
Hf1 Ta1 B2,13.005587544748977
Hf1 Ta1 B4,11.622728295138613
Hf1 Ta1 C1 N1,13.8300989090444
Hf1 Ta1 C2,13.452674155630628
Hf1 Ta1 Fe2,0.9775671252330176
Hf1 Ta1 Mn2,1.105647785784649
Hf1 Ta1 Mo2,1.0830856278592988
Hf1 Ta1 N1 O3,10.451286021617287
Hf1 Ta1 N2,14.374984937001756
Hf1 Ta1 Os2,1.579614705808723
Hf1 Ta1 Re2,17.860857835909734
Hf1 Ta1 Ru2,1.1808264749486563
Hf1 Ta1 Tc2,13.752785960008024
Hf1 Ta1 V4,9.95466512216052
Hf1 Ta2 N3,13.538535618099123
Hf1 Ta2 V1 C4,12.058709582829495
Hf1 Ta3 C4,13.098223969345698
Hf1 Tc1,13.178731261361914
Hf1 Tc2 Ge1,0.8897763846550374
Hf1 Tc2 Mo1,0.907229066636886
Hf1 Tc2 Sb1,12.05383837734134
Hf1 Tc2 Sn1,11.81875649101661
Hf1 Tc2 W1,14.257435829075398
Hf1 Te1 Ru1,10.497018790902102
Hf1 Te1 S1,6.77179105399891
Hf1 Te1 Se1,7.20383969760495
Hf1 Te1 Se4,5.884793343071307
Hf1 Te2,6.750964479584526
Hf1 Te3,7.631486817172769
Hf1 Ti1,9.359018656026858
Hf1 Ti1 Au2,1.0648607984759932
Hf1 Ti1 B4,8.046311751600598
Hf1 Ti1 Be2,0.5359315543493691