Composition,Density
Y1 Mg1 Ag2,6.312018838172211
Y1 Mg1 Al1,3.262014205984238
Y1 Mg1 Al1 Ge2,4.278958105949562
Y1 Mg1 Au1,7.480394219057902
Y1 Mg1 Au2,10.00890056163366
Y1 Mg1 Cd2,5.949720924002498
Y1 Mg1 Co2 Ni2,6.864719087081571
Y1 Mg1 Cu1,3.757573811718789
Y1 Mg1 Cu2,0.394419758990937
Y1 Mg1 Cu3 Se4,4.851385675778241
Y1 Mg1 Cu4,6.473157220625767
Y1 Mg1 Ga1,4.44706576270948
Y1 Mg1 Hg2,9.148488560714204
Y1 Mg1 In1,4.907289899227445
Y1 Mg1 Ni4,6.793728292425994
Y1 Mg1 Pd1,5.530586941381177
Y1 Mg1 Pd2,0.5397284002061189
Y1 Mg1 Pt2,0.8463184702410417
Y1 Mg1 Rh2,7.38339950775816
Y1 Mg1 Tl1,5.590907437719408
Y1 Mg1 Zn1,4.310719395568217
Y1 Mg1 Zn2,5.072064587340857
Y1 Mg2,2.829123472078739
Y1 Mg2 Sc1,2.9755654423834934
Y1 Mg3,2.5906101280978246
Y1 Mg5,2.328513145743208
Y1 Mg6 C1,2.1100251474897145
Y1 Mg6 Cu1,2.7782264468124014
Y1 Mg6 Ga1,2.7106702124417104
Y1 Mg6 Ni1,2.8033515131683977
Y1 Mg6 Zr1,2.850973094087274
Y1 Mg7,2.1477691430696013
Y1 Mn1 Al1,4.871829673828188
Y1 Mn1 Au2,0.7199074779116836
Y1 Mn1 Co1,6.7307782387877975
Y1 Mn1 F5,3.1772266966420286
Y1 Mn1 Fe1,6.858210861348661
Y1 Mn1 Ni4,7.507693315314844
Y1 Mn1 O3,5.486572953630488
Y1 Mn1 Si1,5.172535189163879
Y1 Mn2,4.89688936220929
Y1 Mn2 Ge2,6.714862951505223
Y1 Mn2 Si1 Ge1,6.117881091687608
Y1 Mn2 Si2,5.392623694850199
Y1 Mo1 O3,5.658682029036143
Y1 N1,4.601897519978835
Y1 Nb1 Ru2,8.990131402310052
Y1 Nb1 Tc2,0.6776857356013416
Y1 Ni1,6.058789089557949
Y1 Ni1 As1,6.5645441674327065
Y1 Ni1 B1 C1,5.821365063107143
Y1 Ni1 Bi1,8.634149415094077
Y1 Ni1 C2,5.814059904528103
Y1 Ni1 F5,3.432407956133986
Y1 Ni1 Ge1,6.735250341662559
Y1 Ni1 Ge2,6.791124391882274
Y1 Ni1 O3,6.125331853295538
Y1 Ni1 P1,5.571295655496066
Y1 Ni1 Sb1,6.942946662745365
Y1 Ni2,7.419684708914734
Y1 Ni2 B2,6.518955187065033
Y1 Ni2 B2 C1,6.099730998852292
Y1 Ni2 Ge2,7.1851822840620105
Y1 Ni2 P2,6.26455818284492
Y1 Ni5,7.801971482882259
Y1 O1,5.158742996076456
Y1 O1 F1,4.9618703098101085
Y1 O2,3.8495351060023015
Y1 O2 F1,3.970716369510803
Y1 O3,3.632145981276631
Y1 Os1 O3,8.718658670203752
Y1 Os3,15.978445051065767
Y1 P1,4.345811510083511
Y1 P1 Pt1,9.034147004504872
Y1 P2 Pd2,7.220842318171406
Y1 P2 Ru2,7.406144096439096
Y1 Pb1 Au1,10.143765756408907
Y1 Pb1 Au2,0.9988257827601305
Y1 Pb2,9.358787678096288
Y1 Pb3,9.991462854243553
Y1 Pd1,7.142412710750713
Y1 Pd1 Au2,0.9101426658516264
Y1 Pd1 Pb1,9.217878160000009
Y1 Pd2,7.567242529019777
Y1 Pd2 Au1,0.8263374656901126
Y1 Pd2 Pb1,10.24002588757282
Y1 Pd3,9.550772030484303
Y1 Pd3 C1,8.777650030307342
Y1 Pt1,10.490737150110771
Y1 Pt1 Au2,0.9956467929020112
Y1 Pt2,13.902143086279764
Y1 Pt3,15.887428134182622
Y1 Pt3 C1,14.08997308589246
Y1 Re1 N3,8.573630359615676
Y1 Rh1,7.797624979465073
Y1 Rh1 Au2,0.9245985580013888
Y1 Rh1 W2,13.303826647877376
Y1 Rh2,9.009607652314168
Y1 Rh2 Pb1,0.880561715473226
Y1 Rh3 C1,9.253270908047057
Y1 Rh5,9.680709422420192
Y1 Ru3,9.772293776741664
Y1 S1,2.582487218430344
Y1 S1 F1,4.685387002914227
Y1 S1 I1,4.476567739718408
Y1 S2,4.235855750758332
Y1 Sb1,5.828629006352761
Y1 Sb1 Au2,0.9107934143524452
Y1 Sb1 O3,5.593683732708098
Y1 Sb1 Pd1,6.404933862885508
Y1 Sb1 Pd2,8.458601245343887
Y1 Sb1 Pt1,9.2648151367418
Y1 Sb1 Rh2,0.7534041661836355
Y1 Sb1 Te3,5.762561331501115
Y1 Sb2,6.400507159372045
Y1 Sc1,3.856290523480857
Y1 Sc1 Ag2,0.4973889296581709
Y1 Sc1 Al2,0.238592825505949
Y1 Sc1 Au2,0.7772846669487506
Y1 Sc1 Be1,3.446237297034705
Y1 Sc1 Cd2,0.3920409323015227
Y1 Sc1 Cu2,0.570741392982865
Y1 Sc1 Fe4,6.576468392001453
Y1 Sc1 Hg2,0.6291628277519016
Y1 Sc1 In2,0.4855211159647987
Y1 Sc1 N2,5.094820330539039
Y1 Sc1 O2,4.031989206123403
Y1 Sc1 Pd2,0.4184047888889833
Y1 Sc1 Pt2,0.796677376084154
Y1 Sc1 Ru2,0.6532011179073113
Y1 Sc1 S2,4.192510624971312
Y1 Sc1 Tl2,0.685131808347767
Y1 Sc1 Zn2,0.3825146653320783
Y1 Sc3 N4,4.654739303835883
Y1 Se1,5.766919585016414
Y1 Se1 Br1,4.792121994926951
Y1 Se1 Cl1,4.165480186772046
Y1 Se2,5.231822786301406
Y1 Si1,3.3973589634189194
Y1 Si1 Ag1,6.120002143364552
Y1 Si1 Au1,8.376808150561944
Y1 Si1 B1 Rh3,8.06918969771522
Y1 Si1 Ni4,7.049924332064123
Y1 Si1 O3,5.306999070894734
Y1 Si1 Pd1,6.494259278413139
Y1 Si2,4.139842478163755
Y1 Si2 Au2,9.540822013484304
Y1 Si2 Ir2,10.076566652574725
Y1 Si2 Ni1,5.185423261134624
Y1 Si2 Ni2,5.761594198258037
Y1 Si2 Os2,10.28898430500351
Y1 Si2 Pd2,6.881947002051371
Y1 Si2 Pt2,10.212881912960269
Y1 Si2 Rh2,7.0293031916003805
Y1 Si2 Rh3,7.722853002668228
Y1 Si2 Ru2,6.870038863566219
Y1 Si2 Ru3,7.610055520418792
Y1 Si3 Ir1,7.0320242903852135
Y1 Sn1,6.2813680912824
Y1 Sn1 Au1,9.329185130988296
Y1 Sn1 Au2,11.323816213765616
Y1 Sn1 F5,3.575855051393372
Y1 Sn1 Ge1,6.477577834680163
Y1 Sn1 O3,5.97375729057571
Y1 Sn1 Pd2,8.839720826473608
Y1 Sn1 Pt2,11.813274924589194
Y1 Sn1 Rh1,8.021780653639304
Y1 Sn1 Rh2,9.256281034879466
Y1 Sn1 Ru2,0.7503794608100595
Y1 Sn2,6.795253808616104
Y1 Sn3,6.624533117269931
Y1 Ta1 Os2,1.131916753941819
Y1 Ta1 Ru2,11.114343077585334
Y1 Tc1 N3,6.33652924815243
Y1 Te1,6.041348377284537
Y1 Te2,6.467634405766136
Y1 Te3,6.368255470249609
Y1 Ti1,4.639648964268992
Y1 Ti1 F5,3.131523461072569
Y1 Ti1 Ge1,5.451985880657122
Y1 Ti1 O3,5.200236792322234
Y1 Ti1 Pd2,0.5862034143202323
Y1 Ti1 Si1,4.422838704325568
Y1 Ti2 Ga4,6.131493288784137
Y1 Tl1,8.800691480927743
Y1 Tl1 Ag2,9.493735004564554
Y1 Tl1 Au2,0.9739057664161072
Y1 Tl1 Cd1,7.211135853820433
Y1 Tl1 Hg2,0.8341790374285307
Y1 Tl1 O2,7.776998737255215
Y1 Tl1 Pd1,9.73017260487349
Y1 Tl1 Pd2,0.8278720169969771
Y1 Tl1 Rh2,0.8284517153848252
Y1 Tl1 S2,5.584178560901912
Y1 Tl1 Se2,6.306015837674352
Y1 Tl1 Te2,6.42528093485992
Y1 Tl3,10.629354660824648
Y1 Tm1 Ag2,8.219869584416637
Y1 Tm1 Al2,5.668977173218703
Y1 Tm1 Cd2,7.709016177156243
Y1 Tm1 Cu2,7.921714936894986
Y1 Tm1 Hg2,10.73340613009714
Y1 Tm1 Ir2,13.417024664469274
Y1 Tm1 Mg2,4.714063063696096
Y1 Tm1 Rh2,9.67874469766392
Y1 Tm1 Ru2,9.876532625255717
Y1 Tm1 Te2,7.395900015511287
Y1 Tm1 Tl2,10.24149796220252
Y1 Tm1 Zn2,7.156361398595148
Y1 Tm3,7.956571985385947
Y1 V1 F5,3.16268247496835
Y1 V1 O3,5.230961248124892
Y1 W1 F5,4.67247836517186
Y1 W1 O3,7.708549244752746
Y1 Zn1,4.925355527901485
Y1 Zn1 Ag2,0.4985210306662711
Y1 Zn1 As1 O1,5.751668055450423
Y1 Zn1 Au2,0.8087796539577639
Y1 Zn1 Cu1 As2,6.171761187123206
Y1 Zn1 Cu1 P2,5.155861283628192
Y1 Zn1 Cu3 Se4,5.37765424600516
Y1 Zn1 Ga1,6.070094356229896
Y1 Zn1 Hg2,0.7200552128874107
Y1 Zn1 P1 O1,4.973858448756877
Y1 Zn1 Pd1,7.222085239077281
Y1 Zn1 Pd2,0.6185377622637263
Y1 Zn1 Pt2,0.9295675888967194
Y1 Zn1 Rh2,8.757737104854362
Y1 Zn1 Si1,5.0642557675120585
Y1 Zn1 Sn2,6.875882178758018
Y1 Zn2,6.307709939042229
Y1 Zn2 Ag1,0.4908148449138473
Y1 Zn2 As1 O2,3.744279594485699
Y1 Zn2 Au1,0.5979273825333513
Y1 Zn2 Cd1,0.4729433433547035
Y1 Zn2 Pd1,0.501360639625841
Y1 Zn2 Pt1,0.7490198748096175
Y1 Zn5,6.674758073577587
Y1 Zr1,5.454318727405002
Y1 Zr1 Au2,0.837176492664833
Y1 Zr1 Fe4,7.180078419583039
Y1 Zr1 Pd2,0.6512302495633532
Y1 Zr1 Ru2,8.501740139223214
Y1 Zr1 S2,5.165999486486488
Y1 Zr1 Sb1,6.55851926806048
Y1 Zr1 Tc2,0.6541978223717849
Y2 Ag1 Au1,0.6592420363939874
Y2 Ag1 Hg1,0.6166213541868487
Y2 Ag1 Ir1,9.01293907214969
Y2 Ag1 Os1,0.694528102276994
Y2 Ag1 Pb1,0.5702055807808621
Y2 Ag1 Pd1,0.5720217681233898
Y2 Ag1 Rh1,0.5556879334636634
Y2 Ag1 Ru1,7.345291220468431
Y2 Ag1 Sb3,0.3264022228283322
Y2 Al1 Ag1,0.4103025607412375
Y2 Al1 Cd1,0.3839604858235074
Y2 Al1 Co3,6.508862260690118
Y2 Al1 Cu1,0.4189736546798966
Y2 Al1 Fe3,6.119379451144915
Y2 Al1 Hg1,0.5066837674646046
Y2 Al1 Ni2,5.785808962271978
Y2 Al1 Pb1,0.4803528415361412
Y2 Al1 Ru1,0.5007333070383341
Y2 Al1 Si2,4.204299548928355
Y2 Al1 Tl1,0.4661951509369892
Y2 Al1 Zn1,4.800594296558803
Y2 Al3 Fe1,4.55005583101771
Y2 Al3 Si2,3.88742240194763
Y2 As1 S1,5.130202573899421
Y2 B3 C2,4.565790457333852
Y2 Be1 Ir1,0.6366823497683651
Y2 Be1 Pb1,0.4675753903844146
Y2 Be1 Pd1,0.4716342724832532
Y2 Bi1 O2,6.68561890884012
Y2 Br2 O1,2.582239696849448
Y2 C1,4.535817916454604
Y2 C1 I2,5.076864715790902
Y2 C1 N2 O2,4.151848797834811
Y2 Cd1 Ag1,0.4813646727213319
Y2 Cd1 Au1,0.5982466830498043
Y2 Cd1 Hg1,0.5702219444984185
Y2 Cd1 In1,0.4933518464291211
Y2 Cd1 Ir1,0.6852268017501794
Y2 Cd1 Pb1,0.56093378291204
Y2 Cd1 Pd1,0.504604719204333
Y2 Cd1 Ru1,0.4929617844499655
Y2 Cl1 O2,1.23330549970751
Y2 Cl2 O1,1.974423718639199
Y2 Co1 Cu1,0.4962833590048149
Y2 Co1 Ge6,6.355717587624443
Y2 Co1 Ir1,0.7329199157306338
Y2 Co1 Ru3,8.61260513036342
Y2 Co2 O5,6.480963619833582
Y2 Co3 Si1,6.888240489745894
Y2 Cr1 H6,4.570004513015378
Y2 Cr1 N3,5.816012147407543
Y2 Cr2 C3,5.553901086930039
Y2 Cu1 Ag1,0.4587892891817398
Y2 Cu1 As3,0.2027230167544932
Y2 Cu1 Au1,0.6648472207082318
Y2 Cu1 Ge6,6.319056206080524
Y2 Cu1 Hg1,0.6317530839969618
Y2 Cu1 Ir1,8.702306717265067
Y2 Cu1 Ni1,0.5624839100661404
Y2 Cu1 O4,5.710752019177434
Y2 Cu1 Os1,0.7248782472669164
Y2 Cu1 Pd1,0.5786303838865902
Y2 Cu1 Pt1,0.7159755216033526
Y2 Cu1 Rh1,6.900597214281147
Y2 Cu1 Ru1,6.9528555319543885
Y2 Cu1 Se2 O1,3.8493808098049858
Y2 Cu3 Si1,5.872067703822816
Y2 Cu3 Sn3,5.824629178666978
Y2 Fe1 B1,6.045094221503624
Y2 Fe1 Pd1,0.339684937446001
Y2 Fe1 Si4,4.606565845893412
Y2 Fe2 Si2 C1,5.518674360510579
Y2 Ga1 Ag1,0.4729382307761564
Y2 Ga1 Au1,0.6002090286446082
Y2 Ga1 Co2,6.55427186805005
Y2 Ga1 Cu1,0.4752944402525065
Y2 Ga1 Hg1,0.5852582055088911
Y2 Ga1 Ni2,6.402907641847073
Y2 Ga1 Pb1,0.2662823727960964
Y2 Ga1 Pd1,0.5652563646213685
Y2 Ga3 Ag1,6.428805480195169
Y2 Ga3 Cu1,6.1901700701011855
Y2 Ga3 Ni1,6.191103186588378
Y2 Ge1 I2,4.9546372135700665
Y2 Ge1 Pd1,0.3920667815868962
Y2 Ge1 Rh3,8.51930062094522
Y2 Ge3,5.533577545005109
Y2 Ge6 Pd1,6.50495271055776
Y2 Ge6 Pt1,7.222632046177475
Y2 H2 C1,4.528940514302296
Y2 Hg1 Au1,0.7521637215825507
Y2 Hg1 Ir1,0.7855841767495513
Y2 Hg1 Pb1,0.6761908091192732
Y2 Hg1 Pd1,0.6735182401540568
Y2 Hg1 Pt1,0.7513565419719944
Y2 Hg1 Ru1,0.6673637243433233
Y2 In1,5.669659581466571
Y2 In1 Cu1,0.4596438748952774
Y2 In1 Hg1,0.6099343447576779
Y2 In1 Ni2,6.600118732950133
Y2 In1 Pb1,0.5048657643291554
Y2 In1 Pd1,0.4905624959554835
Y2 In1 Ru1,0.6059368831965967
Y2 In3 Cu1,6.814446876140992
Y2 In3 Pb3,8.63878787111893
Y2 In3 Sn3,7.054113909580193
Y2 Ir1 Au1,0.8594715827553044
Y2 Ir1 Pd1,9.414582198101035
Y2 Ir1 Pt1,0.9242814029016468
Y2 Ir1 Rh1,9.641540421648315
Y2 Ir1 Ru1,0.8415785705085965
Y2 Mg1,3.679166904270089
Y2 Mg1 Al1,3.802879770726684
Y2 Mg1 Cd1,0.3708629673149333
Y2 Mg1 Ga1,0.3202579533415583
Y2 Mg1 Hg1,0.4255766046888554
Y2 Mg1 Ir1,0.5285682781066949
Y2 Mg1 Os1,0.5842455134335576
Y2 Mg1 Pb1,0.4498886549604761
Y2 Mg1 Ru1,5.550469203810144
Y2 Mg1 Tl1,0.4330240383924294
Y2 Mg1 Zn1,0.3196593385792944
Y2 Mg3 Zn3,4.407149686539323
Y2 Mn1 Si2,4.169010463253224
Y2 Mn3 Co1,6.816094322522474
Y2 Mn3 Fe1,6.656031410308303
Y2 Ni1 Ge3,6.350639717894066
Y2 Ni1 Ge6,6.369761743653973
Y2 Ni1 Ir1,8.891444307270318
Y2 Ni1 Pd1,0.4635271439755727
Y2 Ni1 Pt1,0.4135419769861913
Y2 Ni1 Rh1,0.4232282181174944
Y2 Ni1 Ru1,7.004044710170671
Y2 Ni1 Ru3,8.635985035805296
Y2 Ni2 Sn1,6.873440228002052
Y2 O1 F1,2.983555858791912
Y2 O3,4.65761583661604
Y2 O3 F3,4.128241599325317
Y2 Os1 Pd1,0.7751476106126882
Y2 P1 S1,4.512183410944671
Y2 Pb1 Au1,0.688037667411853
Y2 Pd1 Au1,0.7268831754992695
Y2 Pd1 Pb1,0.5745804194954085
Y2 Pd1 Pt1,0.771824783167133
Y2 Pd1 Rh1,0.6371382120551389
Y2 Pd1 Ru1,7.689563043388471
Y2 Pt1 Au1,0.8631503794141479
Y2 Pt1 Pb1,0.7251397290660377
Y2 Pt1 Rh1,0.7825407956738046
Y2 Re2 Si2 C1,8.490938523914242
Y2 Rh1 Au1,0.7237458959450102
Y2 Rh1 Pb1,0.6592044118384887
Y2 Ru1 Au1,0.7249238866667858
Y2 Ru1 Pt1,0.7896234319568406
Y2 Ru1 Rh1,7.876455949539248
Y2 S1 O2,4.789261852149259
Y2 S2 F1,2.7147911129244675
Y2 Se1 O2,5.303442954813915
Y2 Si1 Pd1,0.4897575602836419
Y2 Si3 Ir3,8.779549564815227
Y2 Si3 Pt3,8.623760734781749
Y2 Sn1 Hg1,0.607509048963736
Y2 Sn1 Pd1,0.5644843729754826
Y2 Tc1 Pb1,0.6311627746366772
Y2 Tc1 Pd1,0.6714346344656412
Y2 Te1 O2,5.722530153252577
Y2 Te1 S2,3.99666987431082
Y2 Te3,0.2786069136290204
Y2 Ti1 Ge2,0.111432242143222
Y2 Ti1 Si2,0.163723469746167
Y2 Tl1 Ag1,7.80871354902817
Y2 Tl1 Cd1,7.6056283745225475
Y2 Tl1 Cu1,0.5371461911561748
Y2 Tl1 Hg1,0.6580062622054313
Y2 Tl1 In1,0.5703666655585983
Y2 Tl1 Pb1,0.6521779180366645
Y2 Tl1 Zn1,0.5056094335962541
Y2 Zn1 Ag1,0.4619943943726982
Y2 Zn1 As2 O1,4.181479882816157
Y2 Zn1 Au1,7.831543850931918
Y2 Zn1 Cd1,0.4196409232549949
Y2 Zn1 Cu1,0.4764021047220208
Y2 Zn1 Ga1,0.4386988339333307
Y2 Zn1 Hg1,0.5420937865399165
Y2 Zn1 In1,5.928789887360727
Y2 Zn1 Ir1,8.45361732187235
Y2 Zn1 Os1,0.5431906791198091
Y2 Zn1 Pb1,0.5104743976477104
Y2 Zn1 Pd1,0.5374596256540602
Y2 Zn1 Pt1,0.6508721731999433
Y2 Zn1 Rh1,0.523880591047253
Y2 Zn1 Ru1,6.725857039330119
Y2 Zn1 Tc1,0.5097242655702863
Y3 Al1,4.455985590050589
Y3 Al1 C1,4.327411797665297
Y3 Al3 Ni1 Ge2,5.216064365580022
Y3 Bi1,6.631488529282603
Y3 Cd1,5.420123964894816
Y3 Co2 Ge4,6.627171142541052
Y3 Er1,5.567330236373031
Y3 Ga1,5.189635888978274
Y3 Ga1 C1,5.007370875272337
Y3 Ge1,5.282077170659041
Y3 Ge1 S2,4.869224311456305
Y3 Ho1,5.492039103735651
Y3 In1,5.435931563873568
Y3 In1 C1,5.4562684891077815
Y3 Lu1,5.694413040188175
Y3 Mg1,3.889582808186218
Y3 Mn3 Ga2 Ge1,6.029407523330967
Y3 Mn3 Ga2 Si1,5.640817314692299
Y3 P1,4.897398011165119
Y3 Pb1,6.592293384239024
Y3 Pb1 C1,6.774896014638807
Y3 Sb1,5.711931770378809
Y3 Sc1 N4,5.432177871666366
Y3 Si1,4.811667265513925
Y3 Si1 S2,4.39528328804266
Y3 Si2 Ni2,5.150543966734561
Y3 Si3 Ni1,4.81917598676198
Y3 Sn1,5.545837978541583
Y3 Sn1 C1,5.60996691237797
Y3 Tl1,6.6414630776225145
Y3 Tl1 C1,6.687686744601332
Y3 Tm1,5.564647106026676
Y3 Zn2 Au4,10.252791711261231
Y4 As1 Se3,5.692174730517906
Y4 Ga1 Co4,6.336075252303832
Y4 Ge1 S3,4.846033532550524
Y4 S3 N2,4.113573424884446
Y4 Se3 N2,4.910405766118565
Y4 Si1 S3,4.47887262040797
Y4 Zn1 Ga3,5.415502659890366
Y5 Mg1,4.140460973261851
Y6 Co1 Bi2,6.634884554371046
Y6 Fe1 Bi2,6.535858024384126
Y6 Fe1 Sb2,5.674386772610621
Y6 Mn1 Bi2,6.447501172360584
Yb1,7.005866629959364
Yb1 Ag1,8.927232124416577
Yb1 Ag1 Au2,13.617088198263374
Yb1 Ag1 Bi1,10.093819282887416
Yb1 Ag1 Ge1,9.176663782375144
Yb1 Ag1 Hg2,12.50883723271311
Yb1 Ag1 O2,7.866517168936211
Yb1 Ag1 Pb1,9.789039654866004
Yb1 Ag1 Pd2,11.292068453767977
Yb1 Ag1 S2,6.876965998147412
Yb1 Ag1 Sn1,8.302591401528879
Yb1 Ag2,9.297834130950184
Yb1 Ag2 Pb1,10.793944455987484
Yb1 Ag2 Sn1,9.828714160802315
Yb1 Ag3,9.91350984594174
Yb1 Al1 Ag2,8.640187596495572
Yb1 Al1 B4,6.641573537315384
Yb1 Al1 Cu1,7.57238801201905
Yb1 Al1 Cu4,8.159380744468523
Yb1 Al1 Cu5,8.726513905918733
Yb1 Al1 Ga1,6.967861249727162
Yb1 Al1 Hg2,11.139257951679514
Yb1 Al1 Ni1,7.942757908027307
Yb1 Al1 O3,8.063769631725124
Yb1 Al1 Zn2,7.572669603196825
Yb1 Al2,5.949727005353145
Yb1 Al2 Cu3,7.176625887214821
Yb1 Al2 Ga2,6.150723751715839
Yb1 Al2 Ge2,5.760952736646056
Yb1 Al2 Ni1,6.607253087516878
Yb1 Al2 Pd1,7.1347279659721385
Yb1 Al2 Si2,4.473834281806361
Yb1 Al3,5.333926334239918
Yb1 Al3 Au1,7.390481782464211
Yb1 Al4 Mo2,6.413992775941287
Yb1 As1,7.739717917332916
Yb1 As1 Pd1,10.074879077535805
Yb1 As3,8.055133116905921
Yb1 Au1,12.478423928987857
Yb1 Au1 O3,10.47114907196504
Yb1 Au2,14.735577378762663
Yb1 Au3,15.87477108657573
Yb1 Au4,16.42268008181824
Yb1 B1 Pd3,10.641139460462322
Yb1 B1 Rh3,11.225716447549612
Yb1 B2,9.04879036686724
Yb1 B2 Ir3,15.926628481861565
Yb1 B2 Rh3,10.611199987867485
Yb1 B2 Ru3,10.460988833160023
Yb1 B6,5.614593733140208
Yb1 Be1 O3,8.557170505085995
Yb1 Bi1 Au1,10.798982956327666
Yb1 Bi1 Pd1,10.425171066992847
Yb1 Bi1 Pd2,12.029121219928252
Yb1 Bi1 Pt1,12.348217293250643
Yb1 Bi1 Rh2,13.09473577965591
Yb1 Bi2,10.53297736477314
Yb1 Bi2 Br1 O4,8.500245973261917
Yb1 Bi2 Cl1 O4,8.316435554036175
Yb1 Bi2 I1 O4,8.554223992946607
Yb1 Bi3,10.795602813472486
Yb1 Br1,7.532163741164068
Yb1 Br1 O1,7.206250677535999
Yb1 Br2,5.452481816299715
Yb1 Br3,4.939835369080475
Yb1 C2,6.99280613124418
Yb1 Cd1,8.562931182998609
Yb1 Cd1 Ag2,9.615577460198846
Yb1 Cd1 Au2,13.215532674444152
Yb1 Cd1 Cu4,9.77560614307941
Yb1 Cd1 Ge1,8.702526800344053
Yb1 Cd1 Hg2,11.873842460457242
Yb1 Cd1 In1,8.272229910815996
Yb1 Cd1 Ni4,10.492785922194148
Yb1 Cd1 O3,7.990284409775507
Yb1 Cd1 Pb1,9.71151583546596
Yb1 Cd1 Pd2,10.932865920665128
Yb1 Cd1 Sn1,8.430727165176988
Yb1 Cd2 As2,7.442572636185781
Yb1 Cd2 In1,8.750381308234354
Yb1 Cd2 Sb2,7.266615665608318
Yb1 Cd3,8.67060663272559
Yb1 Ce1 Ag2,8.620365883558604
Yb1 Ce1 Au2,12.210531631880375
Yb1 Ce1 Cd2,7.793308993996297
Yb1 Ce1 Cu2,8.78004219883713
Yb1 Ce1 Hg2,10.840371929617111
Yb1 Ce1 Mg2,5.113762438377665
Yb1 Ce1 Rh2,10.836144281177996
Yb1 Ce1 Zn2,7.705760187739384
Yb1 Ce2 In1,8.17147294495288
Yb1 Ce3,7.908827405401269
Yb1 Cl1 F1,7.59505835268211
Yb1 Cl1 O1,6.169937504542258
Yb1 Cl2,4.773053220658302
Yb1 Cl3,4.102015862397504
Yb1 Co1 C2,8.659894277224089
Yb1 Co1 Ge2,8.627925307511347
Yb1 Co2,10.759965103250984
Yb1 Co2 Ge2,9.036007166212864
Yb1 Co2 Si2,7.772953925046881
Yb1 Co3 B2,9.682528041209444
Yb1 Cr1 O3,8.409999673876554
Yb1 Cr2 Si2,6.987832095842382
Yb1 Cu1,9.051707970741898
Yb1 Cu1 As2,8.244746091069246
Yb1 Cu1 Bi1,10.098764714355523
Yb1 Cu1 Ge1,8.418561718546675
Yb1 Cu1 O3,8.99120968740075
Yb1 Cu1 Pb1,10.658940568004493
Yb1 Cu1 Pd2,11.391285095683104
Yb1 Cu1 Sb1,8.67581384020862
Yb1 Cu1 Sb2,8.508550558800435
Yb1 Cu1 Se2,6.937306227968153
Yb1 Cu1 Si1,7.548172621866355
Yb1 Cu2,9.55079363688412
Yb1 Cu2 Ge2,8.60977242823449
Yb1 Cu2 Ni3,9.732219108246545
Yb1 Cu2 S2,7.1872243217176575
Yb1 Cu2 Si2,7.407962214306501
Yb1 Cu4 Ag1,9.95484275004192
Yb1 Cu4 Au1,11.749442431783484
Yb1 Cu4 Ni1,9.848164060512714
Yb1 Cu4 Pd1,10.357828504924012
Yb1 Cu5,9.33334873198712
Yb1 Dy1 Cd2,8.735637676099996
Yb1 Dy1 Hg2,11.828882779039196
Yb1 Dy1 Pd2,10.813182337672568
Yb1 Dy1 Pt2,14.545019503569655
Yb1 Dy1 Rh2,11.61612516995242
Yb1 Dy1 Zn2,8.377820719135231
Yb1 Dy3,8.425293800807474
Yb1 Er1 Hg2,12.05796008580606
Yb1 Er1 Pd2,11.01623726157514
Yb1 Er1 Pt2,14.78116843896568
Yb1 Er1 Rh2,11.90051367906748
Yb1 Er1 Se2,8.558829728618297
Yb1 Er1 Zn2,8.660749766660363
Yb1 Er2 Se4,6.986290248777973
Yb1 Er3,8.767037270847558
Yb1 Eu1,6.436364932955551
Yb1 Eu1 Ag2,8.616111977571865
Yb1 Eu1 Au2,11.957749951119093
Yb1 Eu1 Cd2,7.848772669299248
Yb1 Eu1 Ga2,7.913491368490608
Yb1 Eu1 Hg2,10.734556370492646
Yb1 Eu1 In2,2.7734126799027417
Yb1 Eu1 Mg2,4.984017523426048
Yb1 Eu1 O3,8.29168815831867
Yb1 Eu1 Pd2,9.9216250584889
Yb1 Eu1 Pt2,13.601718632898727
Yb1 Eu1 Tl2,9.881860325290267
Yb1 Eu1 Zn2,7.623961031077398
Yb1 Eu3,6.111801868038729
Yb1 F1,7.883036002617738
Yb1 F2,7.541455190850631
Yb1 F3,8.917585998210637
Yb1 Fe1 Cu1,10.127266142396728
Yb1 Fe1 Ge1,8.410550074517655
Yb1 Fe1 Si1,7.818996091721363
Yb1 Fe2,10.436939434270322
Yb1 Fe2 Ge2,8.80865630173943
Yb1 Fe2 O4,6.497882814381233
Yb1 Fe2 Si2,7.537767530086255
Yb1 Ga1,8.56455670229683
Yb1 Ga1 Au2,13.167993652356088
Yb1 Ga1 Co1 O4,7.098186635614581
Yb1 Ga1 Cu1 O4,7.110329823243035
Yb1 Ga1 Cu4,9.103622941729602
Yb1 Ga1 O3,8.542347542519732
Yb1 Ga1 Pd2,10.819595608221556
Yb1 Ga1 Rh2,11.807156998099668
Yb1 Ga2,8.161614220314553
Yb1 Ga2 Cu3,8.725370777406429
Yb1 Ga2 Ir1,12.666902248529077
Yb1 Ga2 Ni1,9.064562134555862
Yb1 Ga2 Pd1,9.235090915572298
Yb1 Ga3 Au1,9.63050353600743
Yb1 Ga3 Cu1,8.06519936891019
Yb1 Ga4,7.430749474060268
Yb1 Ga5 Co1,7.976229788814766
Yb1 Gd1 Ag2,9.233665637708793
Yb1 Gd1 Cd2,8.61586423446977
Yb1 Gd1 Hg2,11.468703426177742
Yb1 Gd1 Rh2,11.31582046059436
Yb1 Gd1 Te2,7.817321009449937
Yb1 Gd1 Zn2,8.90138562256508
Yb1 Gd3,9.770911475869273
Yb1 Ge1 Au1,11.618007992686536
Yb1 Ge1 O3,9.35319179310382
Yb1 Ge1 Pd1,9.717060585836787
Yb1 Ge2 Pd2,9.275998532037931
Yb1 Ge2 Rh2,9.65411703588629
Yb1 Ge2 Ru2,9.52299358328979
Yb1 Ge3,7.936691776056541
Yb1 H1 Cl1,7.213365684355708
Yb1 H1 O2,7.633475736459902
Yb1 H2,7.380748550155697
Yb1 H3,8.269524602800002
Yb1 H3 Pd1,9.270401064005416
Yb1 Hf1 Ir2,17.00923105482413
Yb1 Hf1 Rh2,13.019413679297772
Yb1 Hg1,11.722885182234824
Yb1 Hg1 Pb1,11.488418112041822
Yb1 Hg1 Pd2,12.814612896592031
Yb1 Hg2,12.490369300627814
Yb1 Hg3,12.818680969441203
Yb1 Ho1 Cd2,8.837748939878903
Yb1 Ho1 Hg2,11.974124459378949
Yb1 Ho1 Pd2,10.93674558496386