Composition,Density
La6 Zn1 Cu1,6.603019604723424
Li1,0.5205134318254991
Li1 Ag1,5.726311099889456
Li1 Ag1 Au2,0.9196925702705684
Li1 Ag1 C2,3.367985913307654
Li1 Ag1 F2,4.47022088240165
Li1 Ag1 F4,4.019645710941799
Li1 Ag1 Hg2,0.8372615481917002
Li1 Ag1 O2,4.732865355653649
Li1 Ag1 Pb2,0.7471012844052582
Li1 Ag1 Pd2,0.6435710724339665
Li1 Ag1 Se1,5.741777433791422
Li1 Ag1 Te1,6.148527160487869
Li1 Ag2 Au1,0.7580697465132834
Li1 Ag2 Bi1,0.6623431418314778
Li1 Ag2 F4,3.688472983733843
Li1 Ag2 F6,4.470980563831228
Li1 Ag2 Ge1,7.31321714019773
Li1 Ag2 Hg1,0.6877779638033747
Li1 Ag2 Pb1,8.716806811528187
Li1 Ag2 Pd1,8.27054021596672
Li1 Ag2 Sb1,0.5916444985216064
Li1 Ag2 Sn1,7.559218091120302
Li1 Ag3,7.898908055833461
Li1 Al1,1.5147282055461886
Li1 Al1 Ag2,6.463470579377181
Li1 Al1 Au1,8.37778632494679
Li1 Al1 Au2,11.312644734411895
Li1 Al1 Cu2,5.265673911146685
Li1 Al1 Ga2,0.3606512514109802
Li1 Al1 Ge1,3.2458536020659188
Li1 Al1 Hg2,0.7604509618157509
Li1 Al1 Ir2,0.9269150824914756
Li1 Al1 Ni2,5.466499908697053
Li1 Al1 O2,3.2951592841207544
Li1 Al1 O3,2.665668053423011
Li1 Al1 Pd1,5.5328635834451285
Li1 Al1 Pd2,7.418089567069341
Li1 Al1 Pt1,9.360201666007038
Li1 Al1 Pt2,12.875143379475215
Li1 Al1 Rh2,7.593318131165071
Li1 Al1 Si1,1.966694452929676
Li1 Al1 Te2,3.90593061342884
Li1 Al1 Zn2,0.3214256617525484
Li1 Al2 Au1,0.5302188635045474
Li1 Al2 Co1,0.2607498505714111
Li1 Al2 Cu1,3.799022612945381
Li1 Al2 Ge1,3.196676202745844
Li1 Al2 Ir1,7.608512798638761
Li1 Al2 Ni1,3.917294341042016
Li1 Al2 Os1,7.540566032550418
Li1 Al2 Pd1,4.875656254828326
Li1 Al2 Pt1,7.526715416429815
Li1 Al2 Rh1,4.941954123875981
Li1 Al2 Ru1,0.3608095460178693
Li1 Al2 Tc1,4.671484480839161
Li1 Al3,2.2294784580209583
Li1 As1 F6,3.1958002254537847
Li1 As1 Pd2,8.371516587288909
Li1 As1 Rh2,9.085861442766824
Li1 As1 S2,3.0016816958518864
Li1 As1 Se2,4.378568621967513
Li1 As3,5.14851473299867
Li1 Au1,10.494755470169604
Li1 Au1 C2,5.5696403417338525
Li1 Au1 F6,5.1435957716423815
Li1 Au1 O2,7.118897546753338
Li1 Au3,14.55420515119146
Li1 B1,0.3864645484918558
Li1 B1 Br2,3.167625783870636
Li1 B1 C1,1.89023906626652
Li1 B1 H4,0.7769409989372027
Li1 B1 O2,2.797132773471056
Li1 B1 O3,3.017312033939477
Li1 B2 C2,1.922154716292236
Li1 B3,1.7653301030744222
Li1 Be1,1.1879931080737938
Li1 Be1 As1,3.457550890861353
Li1 Be1 Au2,12.42878211195194
Li1 Be1 B1,1.4197151809535502
Li1 Be1 Cu2,0.3775250887645538
Li1 Be1 O3,2.461513393735289
Li1 Be1 P1,1.9947325807652352
Li1 Be1 Pd2,7.893538580801984
Li1 Be1 Pt2,14.130379361552476
Li1 Be1 Sb1,4.446927738460478
Li1 Be2 Au1,0.6004975250877556
Li1 Be2 Ir1,8.66511101426127
Li1 Be2 Os1,0.607285839050836
Li1 Be2 Pt1,0.6408020717307161
Li1 Be2 Rh1,0.3784292105104277
Li1 Bi1,7.44032615465056
Li1 Bi1 B2 O5,5.267159906132512
Li1 Bi1 F5,4.720901783045854
Li1 Bi1 F6,4.796671313818864
Li1 Bi1 O2,7.094956996522392
Li1 Bi1 Pd2,10.055945863703734
Li1 Bi1 Rh2,10.883850522094315
Li1 Bi1 S2,5.300317771152399
Li1 Bi1 Te2,6.409828172241075
Li1 Bi2 Pd1,0.8819864509999313
Li1 Br1,2.7887347886024574
Li1 Br1 O1,3.178013750520517
Li1 C1,1.3269251410695124
Li1 C1 N1 O1,1.8234281091715847
Li1 C2 O5,1.285834432837961
Li1 C6,2.1639646240604624
Li1 Ca1 As1,2.7151813314292905
Li1 Ca1 Au2,0.6607417858878887
Li1 Ca1 F3,3.245990517842308
Li1 Ca1 Hg2,0.5517865389777867
Li1 Ca1 O3,2.921970902133616
Li1 Ca1 Pb1,5.346549492026173
Li1 Ca1 Pb2,0.5334981164621827
Li1 Ca1 Rh1,4.15821458521397
Li1 Ca1 Sb1,3.7303974934574033
Li1 Ca1 Sn1,3.639045379344383
Li1 Ca1 Tl2,0.5131849684912838
Li1 Ca2 Ag1,0.2282785403838727
Li1 Ca2 Al1,1.7245262155817287
Li1 Ca2 Cd1,2.834379080922246
Li1 Ca2 Ga1,2.481138243360147
Li1 Ca2 Ge1,2.6984402270908894
Li1 Ca2 Hg1,4.275132897984118
Li1 Ca2 In1,2.9049552185653047
Li1 Ca2 Ir1,5.231638430830253
Li1 Ca2 Mg1,1.4703944355333265
Li1 Ca2 Pb1,0.299056634110469
Li1 Ca2 Pd1,0.261858066509314
Li1 Ca2 Pt1,0.404588392210136
Li1 Ca2 Rh1,3.4347220505156946
Li1 Ca2 Sn1,0.233514846768256
Li1 Ca2 Tl1,4.179821485673847
Li1 Ca2 Zn1,0.1737850019633422
Li1 Ca3,1.4054005040887312
Li1 Ca6 Ge1,2.007030848869609
Li1 Cd1,5.162726741741578
Li1 Cd1 Ag2,7.618424951969428
Li1 Cd1 As1,5.028595933951597
Li1 Cd1 Au2,11.820212349127583
Li1 Cd1 Hg2,0.779611312960708
Li1 Cd1 In2,0.5046610559961073
Li1 Cd1 N1,4.5771013937520655
Li1 Cd1 O3,5.220475318260051
Li1 Cd1 P1,4.720976315834017
Li1 Cd1 Pd2,8.580620022366519
Li1 Cd1 Sb1,5.913777951343183
Li1 Cd2 Ag1,7.422003235046838
Li1 Cd2 Au1,9.441776084941024
Li1 Cd2 Cu1,0.5420456093005805
Li1 Cd2 Hg1,0.6225902746649679
Li1 Cd2 In1,0.4937827764319897
Li1 Cd2 Ir1,0.6944747899268586
Li1 Cd2 Ni1,0.4600115241469499
Li1 Cd2 Pd1,7.904980680044591
Li1 Cd2 Pt1,9.98609020789973
Li1 Cd2 Rh1,8.061947424841227
Li1 Cd3,6.743907134364017
Li1 Ce1 Cu2 P2,5.935176700491761
Li1 Ce1 Hg2,9.435871143159437
Li1 Ce1 O3,6.481479140444835
Li1 Ce1 Sn1,5.766101199821208
Li1 Ce1 Sn2,6.476700994482727
Li1 Ce1 Tl2,8.834083796585864
Li1 Ce1 Zn2,5.7424788378774485
Li1 Ce2 Al1,5.314919674351759
Li1 Ce2 Ga1,6.138772931682435
Li1 Ce2 H1 O3,6.776659019551486
Li1 Ce2 Os1,9.145194205244186
Li1 Ce2 Pb1,7.228983897288506
Li1 Ce2 Ru1,7.451581648969454
Li1 Ce3,6.6714677285665545
Li1 Cl1,1.6601081292840258
Li1 Co1 As1,5.4037572079822285
Li1 Co1 Cu1 O4,4.711925108308118
Li1 Co1 F2,4.392954400556556
Li1 Co1 N1,3.830954843264432
Li1 Co1 O2,4.408304144170691
Li1 Co1 S2,3.436225125577939
Li1 Co2 Ge1,7.425339390603052
Li1 Co2 O3,5.28215894888178
Li1 Co2 O4,4.849718708548216
Li1 Co2 Si1,6.177891606241528
Li1 Co3 O4,5.393507779772176
Li1 Cr1 Ir2,1.0324980157850094
Li1 Cr1 N2,3.212840288779315
Li1 Cr1 O3,3.5660568556971444
Li1 Cr1 Rh2,0.7560935669314536
Li1 Cr1 S2,3.2066210516427955
Li1 Cr2 O4,3.9062552994617534
Li1 Cr2 S4,3.655522764427295
Li1 Cr3 O4,4.356154987587823
Li1 Cu1 Ag2,0.5653577316984476
Li1 Cu1 Au2,1.005334254587625
Li1 Cu1 F2,4.061967069326879
Li1 Cu1 N1,4.316975467416007
Li1 Cu1 O1,3.741119218646495
Li1 Cu1 O1 F1,4.496459924487391
Li1 Cu1 O2,3.845249291809807
Li1 Cu1 P1 O4,3.251148156162819
Li1 Cu1 Pd2,8.64089628217795
Li1 Cu1 S1,3.513759378228821
Li1 Cu1 S2,3.14574458133786
Li1 Cu2 Au1,0.775501921757347
Li1 Cu2 Ge1,6.719387396658519
Li1 Cu2 Ni1,0.5297346411259392
Li1 Cu2 P1,5.219770833972788
Li1 Cu2 P1 O4,4.324635575939103
Li1 Cu2 P2,4.525748923197892
Li1 Cu2 Pd1,0.6321652478450511
Li1 Cu2 Si1,5.7166698732821954
Li1 Cu2 Sn1,6.85700256661238
Li1 Cu3,6.872764590838045
Li1 Cu3 N3,6.055320683889791
Li1 Cu3 O3,5.6848645870506
Li1 Dy1 Au2,11.50056301798357
Li1 Dy1 Ge1,6.537721040004984
Li1 Dy1 Hg2,10.535892640021386
Li1 Dy1 In2,6.903102299499409
Li1 Dy1 O3,7.276562009900035
Li1 Dy1 S2,4.705035093551857
Li1 Dy1 Se2,5.794116642423515
Li1 Dy1 Sn2,7.190462434038663
Li1 Dy1 Tl2,9.649455170029691
Li1 Dy2 Al1,6.183488632080776
Li1 Dy2 Ga1,7.153258012793226
Li1 Dy2 In1,7.15844297386971
Li1 Dy2 Ir1,10.329950051646826
Li1 Dy2 Os1,10.453674045798534
Li1 Dy2 Pt1,10.081856102437555
Li1 Dy2 Rh1,8.513374183153731
Li1 Dy2 Ru1,8.585243602785699
Li1 Dy2 Tc1,8.427183360286994
Li1 Dy2 Tl1,8.53549285688885
Li1 Dy3,7.015310078603367
Li1 Er1 Au2,11.807902571090787
Li1 Er1 Ge1,6.830115228403635
Li1 Er1 Hg2,10.77127551285407
Li1 Er1 In2,7.094843494240058
Li1 Er1 O2,6.771821847159361
Li1 Er1 O3,7.553920963942889
Li1 Er1 S2,4.9356855217514575
Li1 Er1 Se2,5.993432031643303
Li1 Er1 Sn2,7.36028366202329
Li1 Er1 Tl2,9.842293347150864
Li1 Er2 Al1,6.506495989326967
Li1 Er2 Au1,9.75655935682891
Li1 Er2 Ga1,7.49724819865448
Li1 Er2 In1,7.510671256790068
Li1 Er2 Ir1,10.878846752494296
Li1 Er2 Os1,10.896993709650438
Li1 Er2 Rh1,8.894443449547671
Li1 Er2 Ru1,9.023970034602431
Li1 Er2 Tc1,8.777946052505039
Li1 Er2 Tl1,8.90843452733121
Li1 Er3,7.423317985790665
Li1 Eu1 H3,5.195134574483653
Li1 Eu1 O3,6.445487587073693
Li1 Eu1 S2,4.231716638765659
Li1 Eu1 Tl2,8.300723587288775
Li1 Eu2 Cd1,5.537135066518396
Li1 Eu2 Hg1,7.043608471481684
Li1 Eu2 Ir1,8.896049077938198
Li1 Eu2 Tl1,6.80789690813889
Li1 Eu3,4.941456735653604
Li1 F1,2.0402521422045927
Li1 F3,2.69928331605822
Li1 Fe1,4.2504567558532464
Li1 Fe1 As1,5.21140049061562
Li1 Fe1 Cu1 S2,4.025533769920747
Li1 Fe1 F4,2.943079817521945
Li1 Fe1 N1,3.6947734158265386
Li1 Fe1 O1 F1,4.022126152272239
Li1 Fe1 O2,4.072462084548668
Li1 Fe1 O3,3.4143500632098185
Li1 Fe1 P1,3.8747954523488577
Li1 Fe1 Pd2,8.325875831827545
Li1 Fe1 Pt2,1.0164501710885967
Li1 Fe1 Rh2,8.52407408889975
Li1 Fe1 S2,3.644613266960636
Li1 Fe2 Cl2 O2,3.1706963223750293
Li1 Fe2 O3,4.681856287598231
Li1 Fe2 O4,4.000334394028769
Li1 Fe2 P2,4.684269843160605
Li1 Fe3 O4,5.0184701204156354
Li1 Ga1,4.1546372762657535
Li1 Ga1 Ag2,7.406974800699784
Li1 Ga1 Au2,12.117782206052528
Li1 Ga1 Cu2,6.659223226945364
Li1 Ga1 Ge1,4.658536783300089
Li1 Ga1 Hg2,0.8296502633732908
Li1 Ga1 Ir1,11.251453910891955
Li1 Ga1 Ir2,1.0331269425002845
Li1 Ga1 Ni2,6.993255153105835
Li1 Ga1 O2,4.89998639426124
Li1 Ga1 Pd2,8.580129073289566
Li1 Ga1 Pt1,10.8844385771217
Li1 Ga1 Pt2,13.898139568802604
Li1 Ga1 Rh2,8.833801590437455
Li1 Ga1 Si1,3.41075944768119
Li1 Ga1 Te2,4.469387747889063
Li1 Ga2 Ag1,0.5003670088625919
Li1 Ga2 Au1,0.7060129862445175
Li1 Ga2 Co1,0.4149727989347068
Li1 Ga2 Cu1,0.4902862829905983
Li1 Ga2 Ir1,9.90298373061438
Li1 Ga2 Ni1,6.532735740430489
Li1 Ga2 Pd1,7.064713523153564
Li1 Ga2 Pt1,9.652123688463703
Li1 Ga2 Rh1,7.334934054721043
Li1 Ga2 Ru1,7.377898330999486
Li1 Ga2 Tc1,0.5290777514726753
Li1 Ga3,5.198398326484377
Li1 Gd1 Au2,11.206588711940526
Li1 Gd1 Ge1,6.187152091378009
Li1 Gd1 Hg2,9.99665073884831
Li1 Gd1 In2,6.666682343382167
Li1 Gd1 O2,5.992705916604431
Li1 Gd1 O3,6.936351682565695
Li1 Gd1 S2,4.467850061728811
Li1 Gd1 Se2,5.562743110213666
Li1 Gd1 Tl2,9.555081286862675
Li1 Gd2 Al1,5.827301916088028
Li1 Gd2 Ga1,6.702072282513692
Li1 Gd2 In1,6.871514418066923
Li1 Gd2 Ir1,9.89086723823798
Li1 Gd2 Os1,9.992957787290164
Li1 Gd2 Rh1,7.95725843570546
Li1 Gd2 Ru1,8.156731602990318
Li1 Gd2 Tl1,8.020242549905516
Li1 Gd3,6.627249237160332
Li1 Ge1 Au2,11.62016670457915
Li1 Ge1 B1 O4,3.494061150463017
Li1 Ge1 Ir2,14.669767383713872
Li1 Ge1 N1,4.198665945852752
Li1 Ge1 O3,4.091270160724233
Li1 Ge1 Pd2,8.602251006746961
Li1 Ge1 Pt2,1.0444986831756056
Li1 Ge1 Rh2,9.086967099511025
Li1 Ge1 Sb1 Te3,5.684993066378167
Li1 Ge2 Ir1,0.7830174494994835
Li1 Ge2 Pt1,0.8032854394868871
Li1 Ge2 Rh1,0.6999319361525749
Li1 Ge3,5.152669948805963
Li1 H1,0.824862688740225
Li1 H1 C2 O4,1.0857372947963722
Li1 H1 F2,2.1562411515669577
Li1 H1 O1,1.376467399890619
Li1 H1 O2,1.6862773228809995
Li1 H1 Pd1,5.106176549811876
Li1 H1 S1,1.3835331107281414
Li1 H2 N1,1.1155937822446425
Li1 H2 O2,0.8579063212806765
Li1 Hf1,7.430751542624777
Li1 Hf1 Au2,0.9924504381476512
Li1 Hf1 Hg2,0.8821366644480381
Li1 Hf1 Ir2,15.393500696199652
Li1 Hf1 Pd2,10.116685541260765
Li1 Hf1 Pt2,14.654857426480245
Li1 Hf1 Rh2,10.676109864643028
Li1 Hf1 S2,5.815438286609346
Li1 Hf1 Se2,7.149222377251777
Li1 Hf2 Ir1,13.177842913996232
Li1 Hf2 Os1,13.175317714843452
Li1 Hf2 Re1,12.903122020582275
Li1 Hf2 Tc1,10.878806039970971
Li1 Hg1,9.20910294527746
Li1 Hg1 Pd2,10.614948225351531
Li1 Hg2 Au1,1.059045436867533
Li1 Hg2 Os1,14.128385567243022
Li1 Hg2 Pd1,11.665945703315169
Li1 Hg2 Pt1,1.1879766920574626
Li1 Hg2 Rh1,0.8971688618652377
Li1 Hg3,10.82052974053715
Li1 Ho1 Au2,11.653652011658965
Li1 Ho1 Ge1,6.6860948321294345
Li1 Ho1 Hg2,10.670235693738029
Li1 Ho1 In2,6.959579976307451
Li1 Ho1 O2,6.870168735482919
Li1 Ho1 O3,7.428173323527167
Li1 Ho1 Pd2,8.772448573179666
Li1 Ho1 S2,4.8372639272854805
Li1 Ho1 Se2,5.900207555489184
Li1 Ho1 Sn2,6.908167183198706
Li1 Ho1 Tl2,9.770420199231028
Li1 Ho1 W2,12.098559078852883
Li1 Ho2 Al1,6.333172303008798
Li1 Ho2 Ga1,7.303068988597372
Li1 Ho2 In1,7.335479060476977
Li1 Ho2 Ir1,10.59582054042363
Li1 Ho2 Os1,10.682381005536785
Li1 Ho2 Pt1,10.266227634634996
Li1 Ho2 Rh1,8.664863054703813
Li1 Ho2 Ru1,8.798476555068552
Li1 Ho2 Tc1,8.609279919384395
Li1 Ho3,7.182666581386231
Li1 I1,3.3163003011561663
Li1 I1 O1,4.220612053992378
Li1 In1,4.9245111958772325
Li1 In1 Ag2,7.591069104703372
Li1 In1 Au2,11.734641535326125
Li1 In1 Cu2,0.5223955933271716
Li1 In1 Ge1,4.944404749866483
Li1 In1 Hg2,0.7812611968832194
Li1 In1 Ir1,10.88592305616194
Li1 In1 N1,4.629254046315632
Li1 In1 O2,5.599078839883139
Li1 In1 Pd2,8.63036944369173
Li1 In1 Pt1,10.55253082852963
Li1 In1 Pt2,13.235239274051434
Li1 In1 Rh1,8.01379220871238
Li1 In1 Rh2,8.879824619069081
Li1 In1 Se2,4.262782502646249
Li1 In1 Si1,4.373003119401646
Li1 In1 Sn1,5.091105238527164
Li1 In1 Te2,4.586735838518133
Li1 In2 Ag1,0.5371668653727991
Li1 In2 Cu1,0.5294789964654909
Li1 In2 Cu1 Se4,4.8851691107144495
Li1 In2 Cu1 Te4,5.1943097223666745
Li1 In2 Ir1,10.155754379283836
Li1 In2 Ni1,7.429891694018432
Li1 In2 Pd1,7.783498372035255
Li1 In2 Pt1,9.874221536201333
Li1 In2 Rh1,8.08057637686047
Li1 In2 Ru1,8.054667256527848
Li1 In3,6.024071081640688
Li1 Ir1,12.141541529333091
Li1 Ir1 F6,4.792677030402478
Li1 Ir1 N2,7.567349891357187
Li1 Ir1 Rh1,11.895770311952282
Li1 Ir3,17.368445080424763
Li1 La1 Au2,0.7780768982655775
Li1 La1 Bi2,8.132729094962388
Li1 La1 Hg2,8.882319567299724
Li1 La1 In2,0.4544634958501487
Li1 La1 O3,5.76256037230548
Li1 La1 S1 O1,4.53963391680238
Li1 La1 Sn2,6.257337337082507
Li1 La1 Tl2,0.6008736889529516
Li1 La1 Zn2,0.4034370262741985
Li1 La2 Al1,4.619551127111311
Li1 La2 Cd1,0.4394897808253498
Li1 La2 Ge1,0.4415242624129279
Li1 La2 H1 O3,6.300924520166179
Li1 La2 Hg1,0.6559100744797296
Li1 La2 In1,0.4935113875133227
Li1 La2 Ir1,8.077235413508564
Li1 La2 Os1,8.20604454246647
Li1 La2 Ru1,6.605519560240147
Li1 La2 Tl1,0.6005517137948675
Li1 La3,5.253572438862931
Li1 Lu1 Au2,12.31889492750931
Li1 Lu1 Ge1,7.152000831622265
Li1 Lu1 Hg2,11.183773355667611
Li1 Lu1 In2,7.322361245203213
Li1 Lu1 O2,7.422133455141844
Li1 Lu1 O3,7.982747817184244
Li1 Lu1 Pd2,9.328154472418175
Li1 Lu1 Pt2,13.722035845718676
Li1 Lu1 Rh2,10.09773303492254
Li1 Lu1 Sn2,7.546873356102752
Li1 Lu1 Tl2,10.246981289064164
Li1 Lu2 Al1,7.026744330271409
Li1 Lu2 Au1,10.481132701934843
Li1 Lu2 Co1,9.008712955747116
Li1 Lu2 Ga1,8.095418198793922
Li1 Lu2 In1,8.044033955914541
Li1 Lu2 Ir1,11.58666667419002
Li1 Lu2 Os1,11.620800362090828
Li1 Lu2 Pd1,9.126049616431368
Li1 Lu2 Pt1,11.281112747635625
Li1 Lu2 Re1,11.26501903616989
Li1 Lu2 Rh1,9.540219864034588
Li1 Lu2 Ru1,9.67206116590025
Li1 Lu2 Tc1,9.32517096190462
Li1 Lu3,8.053885431213295
Li1 Mg1,1.1941591961389764
Li1 Mg1 Ag2,0.4134361491925636
Li1 Mg1 As1,2.9398339110356995
Li1 Mg1 Au2,10.44973598750178
Li1 Mg1 B1 N2,1.7950894093159278
Li1 Mg1 Bi1,4.965553532850072
Li1 Mg1 Cd2,5.244726929841863
Li1 Mg1 Ga2,0.307190166228093
Li1 Mg1 Hg2,0.6571482929291771
Li1 Mg1 In2,0.3824336384747779
Li1 Mg1 N1,2.387696643736157
Li1 Mg1 O3,2.10329822220233
Li1 Mg1 P1,1.891959204732956
Li1 Mg1 Pb2,0.6236088342107752
Li1 Mg1 Pd2,6.801347076189982
Li1 Mg1 Pt2,0.8508473975528936
Li1 Mg1 Sb1,3.4246994866064706
Li1 Mg1 Sb1 Pd1,6.100558308384409
Li1 Mg1 Sb1 Pt1,8.270458515912438
Li1 Mg1 Sn1 Au1,7.619968719936352
Li1 Mg1 Sn1 Pd1,6.137842019941445
Li1 Mg1 Sn1 Pt1,8.350812616468664
Li1 Mg1 Sn2,0.4192729704849251
Li1 Mg1 Tl2,7.702120902002277
Li1 Mg1 Zn2,0.2723558040525309
Li1 Mg2,1.392980705505235
Li1 Mg2 Ag1,3.634285404127561
Li1 Mg2 Al1,1.5359025057526947
Li1 Mg2 Au1,0.4236494333694107
Li1 Mg2 Cd1,0.2332221204008171
Li1 Mg2 Cu1,0.214152899119336
Li1 Mg2 Ga1,2.792612863361596
Li1 Mg2 Ge1,2.769526236882488
Li1 Mg2 Hg1,5.439796464174427
Li1 Mg2 In1,0.24014745164841
Li1 Mg2 Ir1,0.420353642921845
Li1 Mg2 Ni1,2.98311025305944
Li1 Mg2 Pb1,4.67005013122127
Li1 Mg2 Pd1,3.938713476452015
Li1 Mg2 Pt1,6.2677000387366
Li1 Mg2 Rh1,4.0321998729332
Li1 Mg2 Si1,1.913084979214492
Li1 Mg2 Tl1,5.022909217442771
Li1 Mg2 Zn1,2.7571961595064627
Li1 Mg3,1.5079679216237314
Li1 Mg3 O4,3.157413001849991
Li1 Mg4 Si2,1.9599966476024693
Li1 Mg5,1.5897090395016062
Li1 Mg6 C1,1.7838688610862383
Li1 Mg6 Co1,2.2587721392277014
Li1 Mg6 Fe1,2.170629576966216
Li1 Mg6 Ga1,2.1774441417850787
Li1 Mg6 Mo1,2.559880196002809
Li1 Mg6 Ni1,2.204501061833186
Li1 Mg6 W1,3.4844257524564
Li1 Mn1,3.9231260695105568
Li1 Mn1 As1,4.1748340878280805
Li1 Mn1 As2,4.589449187161756
Li1 Mn1 Au2,0.950289918685228
Li1 Mn1 F4,3.309335692764153
Li1 Mn1 F6,2.909855794510598
Li1 Mn1 Ir2,1.0448762060362171
Li1 Mn1 N1,3.5488557305323267
Li1 Mn1 N2,3.419540558238083
Li1 Mn1 O1,0.2573081739133079
Li1 Mn1 O2,3.729263300906786
Li1 Mn1 P1,3.6796968762571054
Li1 Mn1 P2,3.2530175073157817
Li1 Mn1 Pd2,7.91459714556431
Li1 Mn1 Pt2,13.326184968190027
Li1 Mn1 Rh2,0.6317560580179572
Li1 Mn1 Sb1,4.566549400165999
Li1 Mn1 Sb2,4.810178219356768
Li1 Mn1 Se2,4.02170074272541
Li1 Mn1 Te2,4.686733132184738
Li1 Mn2 F6,3.360480164635588
Li1 Mn2 O4,3.958465482950209
Li1 Mo1 N2,5.546253490421287
Li1 Mo1 O2,5.0782273282545605
Li1 N1,1.3519769846687442
Li1 N1 O2,2.06847731448085
Li1 N1 O3,2.317591665417597
Li1 N3,1.790105988509919
Li1 Nb1 As2,4.043232033689111
Li1 Nb1 F6,3.055443454004922
Li1 Nb1 Ir2,13.650067654046122
Li1 Nb1 O2,5.52702240821137
Li1 Nb1 Rh2,8.690848306893276
Li1 Nb1 Ru2,0.6628548310962202
Li1 Nb1 S2,4.242441211783299
Li1 Nb1 Se2,5.795759440803728
Li1 Nb1 W1 O6,5.690000680233599
Li1 Nb2 O1,5.772964674084609
Li1 Nd1 Au2,10.21966116064795
Li1 Nd1 Ge1,5.498797510216097
Li1 Nd1 Hg2,9.453986043744605
Li1 Nd1 In2,6.2129736813574565
Li1 Nd1 O3,6.162155477543917
Li1 Nd1 S2,3.9527829533358334
Li1 Nd1 Se2,5.02573951157781
Li1 Nd1 Sn1,5.856077973360667
Li1 Nd1 Sn2,6.555481876794199
Li1 Nd1 Tl2,8.836156810252781
Li1 Nd1 Zn2,5.640892412502261
Li1 Nd2 Al1,5.079520948560387
Li1 Nd2 Ga1,5.88734004678607
Li1 Nd2 H1 O3,6.911765117099287
Li1 Nd2 Ir1,8.68247543664079
Li1 Nd2 Os1,8.812158529326686
Li1 Nd2 Rh1,6.969673405962265
Li1 Nd2 Ru1,7.211796782723942
Li1 Ni1 H2,3.885000930712998
Li1 Ni1 N1,3.399133661394882
Li1 Ni1 O2,2.4777348996420305
Li1 Ni1 O3,3.5071240682157314
Li1 Ni1 P1,3.960070569791652
Li1 Ni1 S2,3.681475235567338
Li1 Ni1 Sn1 O4,5.132444776088881
Li1 Ni2 As1,0.4332671552372679
Li1 Ni2 Ge1,7.165161956481541
Li1 Ni2 O4,4.575499842983658
Li1 Ni2 P2,4.758449721468775
Li1 Ni2 S2,4.463319070306666
Li1 Ni2 Sb1,7.648453960200582
Li1 Ni2 Sn1,7.500204856978278
Li1 Ni3,7.033595889275996
Li1 Ni3 O3 F1,5.550166068905831
Li1 O2,2.237804733376227
Li1 O3,2.130136214552076
Li1 O8,1.9858474947235345
Li1 Os1 F6,4.845464785249627
Li1 Os1 N2,7.431106227645449
Li1 Os2 W1,1.2758299244736375
Li1 P1 F6,2.6949748904318613
Li1 P1 H2,1.7195957613488202
Li1 P1 N2,2.874445084630143
Li1 P1 Pd2,0.55184078566838
Li1 P1 Rh2,0.5902291942008452
Li1 P1 Ru2,0.5442169067178017
Li1 P3,2.657040329408825
Li1 Pb1,7.8294056774664575
Li1 Pb1 Au2,0.9396233524684195
Li1 Pb1 N1,7.089574233631913
Li1 Pb3,7.51060008268077
Li1 Pd1,6.608910023648338
Li1 Pd1 Au2,12.887670469790043
Li1 Pd1 N1,5.837235006513973
Li1 Pd1 Pb2,0.83052135569031
Li1 Pd1 W2,13.327497286390306
Li1 Pd2 Au1,0.866295319700479
Li1 Pd2 Pb1,10.32502186731379
Li1 Pd3,9.120448090969928
Li1 Pd7,10.335558715734429
Li1 Pm1 Au2,10.46033787293873
Li1 Pm1 Ga2,5.740964527224751
Li1 Pm1 Hg2,9.644574553806969
Li1 Pm1 In2,6.308087191199792
Li1 Pm1 O3,6.31537090733444
Li1 Pm1 Tl2,8.944393439134286
Li1 Pm1 Zn2,5.7642352046185295
Li1 Pm2 Al1,5.174634763893444
Li1 Pm2 Co1,6.788277291075797
Li1 Pm2 Ga1,6.025688649736205
Li1 Pm2 Ge1,6.322656908394277
Li1 Pm2 Ir1,8.895201077687101
Li1 Pm2 Os1,9.004017351121565
Li1 Pm2 Pb1,7.482618394438512
Li1 Pm2 Pt1,8.609272869575799
Li1 Pm2 Rh1,7.186011726824388
Li1 Pm2 Ru1,7.399435631950489
Li1 Pm2 Si1,5.723124055038692
Li1 Pm2 Sn1,6.328603688933094
Li1 Pm3,5.874610778936951
Li1 Pr1 Au2,9.966409105369468
Li1 Pr1 Ge1,5.302627786585018
Li1 Pr1 Hg2,9.23900567741284
Li1 Pr1 O3,5.969453574381734
Li1 Pr1 S2,3.79924515177426
Li1 Pr1 Sn1,5.673399064722769
Li1 Pr1 Sn2,6.433951572154837
Li1 Pr1 Tl2,8.6520441197492
Li1 Pr1 Zn2,5.491140916602037
Li1 Pr2 Al1,4.829402948330328
Li1 Pr2 Ga1,5.597764983636685
Li1 Pr2 Ge6,6.235592692758144
Li1 Pr2 Ir1,8.341333559145166
Li1 Pr2 Os1,8.526549370674783
Li1 Pr2 Rh1,6.7302426079474005
Li1 Pr2 Ru1,6.891889702290148
Li1 Pr3,5.476011919878199
Li1 Pt1,11.92682752715453
Li1 Pt1 F6,5.162741105189653
Li1 Pt1 N1,7.840230123493312
Li1 Pt2,12.74768504072664
Li1 Pt3,16.692342604674284
Li1 Pt7,18.712190711999263