Composition,Density
Li1 Re1 N2,7.1794172749854726
Li1 Re3,16.503258235447923
Li1 Rh1,6.7273310890219
Li1 Rh1 F6,3.5144252859445686
Li1 Rh1 O2,5.991561532460953
Li1 Rh2 Pb1,10.924334409218876
Li1 Rh2 W1,0.7647639247649579
Li1 Rh3,9.544126209060334
Li1 Ru1 F6,3.5306546332964444
Li1 Ru1 N2,4.585315771346703
Li1 Ru1 O2,6.4428633067730745
Li1 Ru1 O3,4.593951862652347
Li1 Ru2 W1,11.758407079389755
Li1 S1,1.6240246980206432
Li1 Sb1 Au1,8.080207579977742
Li1 Sb1 Au2,0.9500892523014924
Li1 Sb1 F6,3.564597250374786
Li1 Sb1 N2,4.7504593557562425
Li1 Sb1 O2,4.163917356092643
Li1 Sb1 Pd2,8.744092275974303
Li1 Sb1 Pt2,1.0106599912196008
Li1 Sb1 Rh2,9.333449313577471
Li1 Sb1 S1,3.698227568919558
Li1 Sb1 S2,3.732483549499436
Li1 Sb1 Se2,5.075779885025944
Li1 Sb1 Te2,5.564201590448894
Li1 Sb3,6.025987141547254
Li1 Sc1 Ag2,0.4129406947049636
Li1 Sc1 Au2,10.331392227990952
Li1 Sc1 Cd2,0.3608273451217997
Li1 Sc1 Ga2,0.3329047016193808
Li1 Sc1 Hg2,9.367758069498803
Li1 Sc1 In2,0.4125204753865178
Li1 Sc1 O2,3.3377481690586226
Li1 Sc1 Pd2,6.810437095629269
Li1 Sc1 Pt2,11.57020758443686
Li1 Sc1 Rh2,0.5438561447513129
Li1 Sc1 S2,2.6870836128017235
Li1 Sc1 Si1,2.105329954865245
Li1 Sc1 Sn1,3.682751700723355
Li1 Sc1 Tl2,8.447013597230043
Li1 Sc1 Zn2,0.3014335404898126
Li1 Sc2 Al1,0.1803323500798496
Li1 Sc2 Au1,6.255826337658283
Li1 Sc2 Co1,0.3624293395296574
Li1 Sc2 Ga1,0.2572080006419708
Li1 Sc2 Hg1,0.4192524585591465
Li1 Sc2 In1,0.3015915985466588
Li1 Sc2 Ir1,6.82948967833659
Li1 Sc2 Os1,6.819598009389145
Li1 Sc2 Pd1,0.2810955995933415
Li1 Sc2 Pt1,6.700872127625992
Li1 Sc2 Rh1,4.670742426203425
Li1 Sc2 Ru1,4.6817704075037385
Li1 Sc2 Tc1,4.519935185328029
Li1 Sc2 Tl1,0.3655230687090852
Li1 Si1,1.9324632477649857
Li1 Si1 Ag2,0.4830183285505791
Li1 Si1 Au2,0.9202072973581308
Li1 Si1 B1,2.4218827333023243
Li1 Si1 B1 O4,2.6698841511887004
Li1 Si1 C2,2.226126137562915
Li1 Si1 Ir2,14.141190935718402
Li1 Si1 Ni2,5.957779614798409
Li1 Si1 O3,3.1917989373979303
Li1 Si1 Pd2,7.781614947445828
Li1 Si1 Pt2,13.303884142290432
Li1 Si1 Rh2,8.189550308579935
Li1 Si1 Ru2,8.028575691604319
Li1 Si2 Ir1,0.8546203620134648
Li1 Si3,2.5888024793947366
Li1 Si3 Pd1,4.141930275457595
Li1 Sm1 Au2,10.711039444153643
Li1 Sm1 Cu2 P2,6.188932161933015
Li1 Sm1 Ge1,5.8490053888639135
Li1 Sm1 Hg2,9.834003638147632
Li1 Sm1 In2,6.44465139693652
Li1 Sm1 O3,6.543675364096959
Li1 Sm1 S2,4.20574724004688
Li1 Sm1 Se2,5.29747068336253
Li1 Sm1 Sn2,6.746009206128267
Li1 Sm1 Tl2,9.118539369449897
Li1 Sm2 Al1,5.421404191030474
Li1 Sm2 Ga1,6.28423963658488
Li1 Sm2 Ir1,9.234872705355222
Li1 Sm2 Os1,9.367923431075928
Li1 Sm2 Ru1,7.62747326520512
Li1 Sm3,6.232463967139272
Li1 Sn1,4.987740096502195
Li1 Sn1 Au1,8.924184544961097
Li1 Sn1 Au2,11.42437272688759
Li1 Sn1 B1,5.236730662398376
Li1 Sn1 Cl3,2.785230555336312
Li1 Sn1 Hg2,0.8357418379620045
Li1 Sn1 Ir2,14.063633700304177
Li1 Sn1 N1,4.777756352366265
Li1 Sn1 P1 O4,3.4378560021286875
Li1 Sn1 Pd2,8.748706069198562
Li1 Sn1 Pt2,0.9956459800379344
Li1 Sn1 Rh2,9.174308033588108
Li1 Sn1 S2,3.92845809096984
Li1 Sn2 Ir1,0.7999470700527492
Li1 Sn3,5.995139845785338
Li1 Ta1 Be1,6.809986130926067
Li1 Ta1 F6,3.942822730152578
Li1 Ta1 Ir2,16.209394902064595
Li1 Ta1 N2,8.58810133227613
Li1 Ta1 Os2,1.2342617991787366
Li1 Ta1 Pt2,1.0009402569991912
Li1 Ta1 Rh2,11.268208043868844
Li1 Ta1 Ru2,11.300850766668706
Li1 Ta1 S2,6.607382788501014
Li1 Ta1 Se2,7.706759570773578
Li1 Ta1 W2,14.46155652388494
Li1 Ta2 O6,6.811330108760723
Li1 Ta2 Os1,1.012134278857571
Li1 Ta2 Re1,0.6911254705512322
Li1 Ta2 S4,6.549270254009936
Li1 Tb1 Au2,11.310525719969863
Li1 Tb1 Cu2 P2,6.490256185146274
Li1 Tb1 Ge1,6.35648262622018
Li1 Tb1 Hg2,10.375500558275608
Li1 Tb1 In2,6.763105797280167
Li1 Tb1 S2,4.61205497760403
Li1 Tb1 Se2,5.683760680403617
Li1 Tb1 Sn2,7.109958020731572
Li1 Tb1 Tl2,9.526508017810718
Li1 Tb2 Ir1,10.02372714959681
Li1 Tb3,6.774399570595631
Li1 Tc1 O3,4.4369358797055085
Li1 Tc2 Pd1,9.034856484051888
Li1 Te1 Pd2,8.574771712613597
Li1 Te3,5.0755656536630855
Li1 Ti1 Au2,0.8881303730954536
Li1 Ti1 Cl3,2.151293405634958
Li1 Ti1 Ir2,13.243443767256936
Li1 Ti1 N1 Cl1,3.0719326191471343
Li1 Ti1 O2,3.74192901010693
Li1 Ti1 Pd2,7.573937398226016
Li1 Ti1 Pt2,12.60327492285428
Li1 Ti1 Re1,7.554605223705556
Li1 Ti1 Rh2,7.881916491269074
Li1 Ti1 S2,3.0667979065450983
Li1 Ti1 S2 O1,3.011106788035042
Li1 Ti1 S2 O2,2.344261329035711
Li1 Ti1 Se2,4.683430978144291
Li1 Ti1 Se2 O2,4.06098982592445
Li1 Ti1 Te2,5.416483496668657
Li1 Ti2 Ir1,0.5749150509960621
Li1 Ti2 O4,3.8893142541448738
Li1 Ti2 Os1,0.5786786497903298
Li1 Ti2 S4,3.0297111205686487
Li1 Ti2 Te4,5.614732469027532
Li1 Ti3 O4,4.744328146466423
Li1 Tl1,6.956208888749542
Li1 Tl1 Ag2,0.6248247704836459
Li1 Tl1 Hg2,0.8316142656620669
Li1 Tl1 O2,8.082191656981113
Li1 Tl1 Pd2,10.543626958241772
Li1 Tl2 Pd1,0.7995281971448454
Li1 Tl2 Rh1,11.243389512425212
Li1 Tl3,9.283944886312463
Li1 Tm1 Au2,11.982134550891654
Li1 Tm1 Ge1,6.93842655000828
Li1 Tm1 Hg2,10.955988611451296
Li1 Tm1 In2,7.158761178480591
Li1 Tm1 O2,6.974169413441952
Li1 Tm1 O3,7.698441212061701
Li1 Tm1 Pd2,9.057863090977015
Li1 Tm1 Pt2,13.451123603613151
Li1 Tm1 Rh2,9.79744906000281
Li1 Tm1 Sn2,7.390873262202759
Li1 Tm1 Tl2,9.967016690926592
Li1 Tm2 Al1,6.654917074481593
Li1 Tm2 Au1,9.96552989253055
Li1 Tm2 Co1,8.620024223593582
Li1 Tm2 Ga1,7.667165974322613
Li1 Tm2 Ge4,7.771769651349449
Li1 Tm2 In1,7.648833530922978
Li1 Tm2 Ir1,11.042052724215475
Li1 Tm2 Os1,11.081605432547883
Li1 Tm2 Pt1,10.736454937726055
Li1 Tm2 Rh1,9.07051372255462
Li1 Tm2 Ru1,9.22137510152405
Li1 Tm2 Tc1,8.982967151589007
Li1 Tm3,7.580982389437272
Li1 V1 B1 O4,2.8328357209218846
Li1 V1 Bi1,7.181072137247282
Li1 V1 F4,2.8158029383741168
Li1 V1 F6,2.090683614072933
Li1 V1 Ir2,14.068825217986362
Li1 V1 Mo1 O6,3.757649456431364
Li1 V1 O2,2.078402936555148
Li1 V1 Rh2,8.408842891499939
Li1 V1 Ru2,0.6222627860114363
Li1 V1 S2,3.184361404969992
Li1 V1 Sb1,4.528397130491248
Li1 V1 Se2,5.128736628619558
Li1 V1 W1 O6,5.117314511498381
Li1 V2 O3 F3,3.4093864523978885
Li1 V2 O4,3.778723034282532
Li1 W1 N2,8.856176827410989
Li1 W1 O2,8.193671875633498
Li1 W3,15.228881545133184
Li1 Y1 Au2,9.938992798326492
Li1 Y1 Cd2,0.4042884737628415
Li1 Y1 Cu2 P2,5.251203368870698
Li1 Y1 Ga4,5.485903406534744
Li1 Y1 Ge1,4.523831350470276
Li1 Y1 Hg2,9.12471905595058
Li1 Y1 In2,0.3717697383142878
Li1 Y1 O3,4.765657634060684
Li1 Y1 Pb2,0.5965323654417011
Li1 Y1 Pd2,0.5135033471662008
Li1 Y1 S2,3.213006879093898
Li1 Y1 Se2,4.4767339265742345
Li1 Y1 Si1,2.7892751853297733
Li1 Y1 Tl2,8.385321239333544
Li1 Y1 Zn2,0.3400869043459378
Li1 Y2 Ag1,0.3723252527144252
Li1 Y2 Al1,3.5950546743294827
Li1 Y2 Cd1,0.3489786967178001
Li1 Y2 Co1,0.3477542645376495
Li1 Y2 Ga1,0.3419157311976931
Li1 Y2 Hg1,0.4626706712648712
Li1 Y2 In1,0.3305294861601097
Li1 Y2 Ir1,7.360027140080492
Li1 Y2 Os1,7.391111723867082
Li1 Y2 Pb1,0.4294214101165491
Li1 Y2 Pd1,0.4167160382810578
Li1 Y2 Pt1,7.157748639832637
Li1 Y2 Rh1,5.538817419495261
Li1 Y2 Ru1,5.65201865973222
Li1 Y2 Tc1,0.4198367245006141
Li1 Y2 Tl1,0.415276379711289
Li1 Y2 Zn1,0.3320520815329507
Li1 Y3,3.8060834130960166
Li1 Yb1 Au2,11.769461512517632
Li1 Yb1 Cu2 P2,6.747410551867447
Li1 Yb1 Ge1,6.466638490341676
Li1 Yb1 O2,7.574476283578203
Li1 Yb1 O3,7.443193166766766
Li1 Yb1 Pb1,8.299932419062428
Li1 Yb1 Pb2,9.260201334066773
Li1 Yb1 Pd2,9.359837799454889
Li1 Yb1 S2,5.019446241566259
Li1 Yb1 Tl2,9.786744689067731
Li1 Yb2 Al1,5.827063323199933
Li1 Yb2 Cd1,6.865282724320901
Li1 Yb2 Ga1,6.881755598920975
Li1 Yb2 Hg1,8.439908666521125
Li1 Yb2 In1,6.877051353884656
Li1 Yb2 Ir1,10.791349867470784
Li1 Yb2 Pd1,8.245411262545218
Li1 Yb2 Rh1,8.922559971121123
Li1 Yb2 Tl1,8.131782807490591
Li1 Yb3,5.902399409401069
Li1 Zn1,4.082778097815391
Li1 Zn1 Ag2,7.445446834398746
Li1 Zn1 As1,4.577797983183908
Li1 Zn1 Au2,12.31435283156527
Li1 Zn1 Cd2,0.4764816841741414
Li1 Zn1 Cu2,0.5405046421212351
Li1 Zn1 Fe1 O3,5.085077367460376
Li1 Zn1 Ga2,0.4359735617271522
Li1 Zn1 Ge1,4.805073259400295
Li1 Zn1 Hg2,0.8150900704373297
Li1 Zn1 N1,4.770473662314311
Li1 Zn1 Ni2,6.737390407389485
Li1 Zn1 O2,4.590914685401208
Li1 Zn1 P1,3.592060482586268
Li1 Zn1 P1 S4,2.4972669671839736
Li1 Zn1 Pd2,8.491450862836404
Li1 Zn1 Pt2,1.0384239518985283
Li1 Zn1 Sb1,4.900838752498481
Li1 Zn2 Ag1,0.4658300359786324
Li1 Zn2 Au1,9.05197008808687
Li1 Zn2 Co1,0.4326394947119725
Li1 Zn2 Cr1 O4,5.449680263984546
Li1 Zn2 Cu1,0.5425223473906745
Li1 Zn2 Ir1,9.877498579414269
Li1 Zn2 Ni1,6.43195858595881
Li1 Zn2 Pd1,7.0748208460507085
Li1 Zn2 Pt1,9.667523625897314
Li1 Zn2 Rh1,7.193912960805144
Li1 Zn2 Ru1,0.4843448865138712
Li1 Zn3,5.6366309797181255
Li1 Zr1 Au2,11.153924791886332
Li1 Zr1 Cu2,0.7022348633583295
Li1 Zr1 Hg2,0.7115483427359829
Li1 Zr1 Ir2,12.790227123857347
Li1 Zr1 N2,4.083580411106802
Li1 Zr1 O2,5.093783945796442
Li1 Zr1 Pd2,0.577135782970445
Li1 Zr1 Pt2,12.121967757265551
Li1 Zr1 Rh2,8.08854910118989
Li1 Zr1 S2,3.6548278838866497
Li1 Zr1 Sc1,3.0123757597938865
Li1 Zr1 Se2,5.2354544146243445
Li1 Zr2 Ir1,8.747893134953834
Li1 Zr2 Os1,8.741678111964676
Li1 Zr2 Pb1,6.966911324278038
Li1 Zr2 Pt1,0.6447016238314878
Li1 Zr2 Re1,8.504158873022925
Li1 Zr2 Ru1,0.5171497607480341
Li1 Zr2 S4,3.672272065448488
Li1 Zr2 Tc1,6.557078186116855
Li1 Zr4 Ge1,6.017003021043626
Li2 Ag1 As1,0.3836347728417515
Li2 Ag1 Au1,8.42829846652872
Li2 Ag1 Bi1,6.811713605228962
Li2 Ag1 F3,4.66987101304501
Li2 Ag1 F5,3.366979533311392
Li2 Ag1 Ge1,0.3646870151141582
Li2 Ag1 Hg1,7.789757601566508
Li2 Ag1 Pb1,7.0406009632418
Li2 Ag1 Pd1,6.481357631935226
Li2 Ag1 Sb1,5.473006203656001
Li2 Ag1 Sn1,5.566622045970214
Li2 Al1,1.381340819290832
Li2 Al1 Ag1,3.9187422622260746
Li2 Al1 Au1,0.4752889971700663
Li2 Al1 Co1 O4,3.919695300864424
Li2 Al1 Ga1,2.9934371373017723
Li2 Al1 Pd1,4.294102878447042
Li2 Al1 Pt1,7.06485378183684
Li2 Al1 Rh1,4.4012988132347735
Li2 Al1 Si1,1.7411005042920815
Li2 As1 Au1,0.6116275398903452
Li2 B1,1.5412374913113491
Li2 Be1 As2,2.667843993067866
Li2 Bi1 Au1,8.009219966963366
Li2 Bi1 F5,4.237674222252087
Li2 Bi1 O2,6.350063435156528
Li2 Bi1 O3,5.883753433480088
Li2 Bi1 S2,4.346492544362439
Li2 Br1 O1,2.429071266855872
Li2 C1,1.2291200445334227
Li2 C1 N2,1.4791032335562375
Li2 Ca1,1.077138599119172
Li2 Ca1 Al1,0.1001482147588869
Li2 Ca1 Cd1,0.192044746706909
Li2 Ca1 Ga1,0.1566201850342747
Li2 Ca1 Ge1,2.8762703026038143
Li2 Ca1 Ge1 O4,3.4817825060824297
Li2 Ca1 In1,3.1516238650814885
Li2 Ca1 Mg1,0.0886977125271189
Li2 Ca1 N2,2.245600250584454
Li2 Ca1 Pb1,4.99870701005326
Li2 Ca1 Si1,1.9241696624828808
Li2 Ca1 Si1 O4,2.8623439964648494
Li2 Ca1 Sn1,3.437484923372295
Li2 Ca1 Tl1,0.3186853800317066
Li2 Cd1 Ag1,0.399466556146876
Li2 Cd1 Au1,8.10755204343383
Li2 Cd1 Bi1,0.5221022115637686
Li2 Cd1 Ga1,0.3390010743749378
Li2 Cd1 Ge1,4.920389520645951
Li2 Cd1 Hg1,7.336970821998791
Li2 Cd1 In1,0.3833031369224365
Li2 Cd1 Pb1,6.446427156133197
Li2 Cd1 Pd1,6.196190063263765
Li2 Cd1 Pt1,0.7800544711985071
Li2 Cd1 Rh1,0.5194251072268911
Li2 Cd1 Sb1,5.198540543494652
Li2 Cd1 Sn1,5.337236377585261
Li2 Ce1 Al1,3.765416177906226
Li2 Ce1 As2,4.648299361070837
Li2 Ce1 Ga1,4.804793642174684
Li2 Ce1 Ge1,5.103202864233356
Li2 Ce1 In1,5.046356322687115
Li2 Ce1 N2,4.945453704820285
Li2 Ce1 O3,4.347164978772307
Li2 Ce1 P2,3.610845375149897
Li2 Ce1 Pb1,6.869982528898216
Li2 Ce1 Sn1,5.553932465809977
Li2 Ce1 Tl1,6.790254073263094
Li2 Co1 Cl4,2.618729020926468
Li2 Co1 N2,4.117062224174095
Li2 Co1 Ni1 O4,4.504680838262744
Li2 Co1 O2,3.5817519359258525
Li2 Co1 Sb1,5.237123701605563
Li2 Cr1 Cl4,2.39983734902604
Li2 Cr1 Co1 O4,4.283404670321104
Li2 Cr1 Cu1 O4,4.411919810337452
Li2 Cr1 Fe1 As2,4.769055478422574
Li2 Cr1 Fe1 O4,4.130485311917275
Li2 Cr1 N2,3.737548478087816
Li2 Cr1 Ni1 O4,4.346877866370996
Li2 Cr1 O3,3.4252959844350563
Li2 Cr1 S4,2.699312336654675
Li2 Cu1 Ag1,0.413806308404628
Li2 Cu1 As1,4.188176015409804
Li2 Cu1 Au1,0.6252291614606043
Li2 Cu1 Bi1 O4,6.580184128144283
Li2 Cu1 F4,3.3434884007974968
Li2 Cu1 Ge1,3.7480453411288974
Li2 Cu1 Ni1 O4,4.756191881020035
Li2 Cu1 O2,3.1558652603930213
Li2 Cu1 P1,3.3219412764009304
Li2 Cu1 Pd1,0.4172236870801564
Li2 Cu1 S2,2.802648664506487
Li2 Cu1 Sb1,5.207161258825238
Li2 Cu1 Si1 O4,3.385797259757912
Li2 Cu1 Sn1,5.231752148217734
Li2 Cu1 Sn1 O4,5.225936442422319
Li2 Cu3 Ge1,5.453470504282237
Li2 Dy1 In1,5.992822787385386
Li2 Dy1 Tl1,7.830970500409616
Li2 Er1 In1,6.128546302541236
Li2 Er1 Tl1,8.056238137352963
Li2 Eu1 Ge1,5.16687962074443
Li2 Eu1 Ge1 S4,3.6524726591045695
Li2 Eu1 In1,5.07677029961126
Li2 Eu1 Sn1,5.2189032592272415
Li2 Fe1 Br4,3.913598480426053
Li2 Fe1 Co1 O4,4.34045869171903
Li2 Fe1 Cu1 O4,4.446169184437244
Li2 Fe1 F4,2.425680852511804
Li2 Fe1 F6,3.1398619556367904
Li2 Fe1 N1,3.224788286048393
Li2 Fe1 Ni1 O4,4.573781678413289
Li2 Fe1 S2,2.550558685070784
Li2 Ga1,2.9811365329437463
Li2 Ga1 Ag1,0.350306601953431
Li2 Ga1 Au1,7.642884779654331
Li2 Ga1 Bi1,0.439624835982512
Li2 Ga1 Cu3,5.48015143900979
Li2 Ga1 Hg1,0.5031106641363893
Li2 Ga1 Ir1,8.47787650651957
Li2 Ga1 Pd1,5.538394960380049
Li2 Ga1 Pt1,8.263641086909992
Li2 Ga1 Rh1,5.714004516208291
Li2 Ga1 Sb1,4.452629278044222
Li2 Ga1 Si1,2.964352340997113
Li2 Ga1 Sn1,0.3516993591999972
Li2 Gd1 In1,5.813516989044043
Li2 Gd1 Tl1,7.399440182846162
Li2 Ge1 Au1,7.698047612627203
Li2 Ge1 Pb1 S4,4.10466786900527
Li2 Ge1 Pd1,5.69574811644608
Li2 Ge1 Pt1,0.5974833613957264
Li2 H1 N1,1.407455663398432
Li2 H2 Pd1,4.037570709385806
Li2 H2 Pt1,6.912363155142868
Li2 H6 Pt1,4.64031291551786
Li2 Hf1 N2,7.258069277758071
Li2 Hf1 O3,6.419445676055266
Li2 Hg1 As1,0.5522133944691093
Li2 Hg1 Au1,10.146775170100112
Li2 Hg1 Bi1,0.6761878913004904
Li2 Hg1 Ge1,7.027357323121252
Li2 Hg1 O2,6.708592330804286
Li2 Hg1 Pb1,0.6652113200672354
Li2 Hg1 Pd1,8.566688700067651
Li2 Hg1 Pt1,0.7552832669247501
Li2 Hg1 Sb1,0.6066116801475472
Li2 Ho1 In1,6.080581177241852
Li2 Ho1 Tl1,7.972023802538443
Li2 I1 Br1,3.0863257420869115
Li2 In1,3.818917214130725
Li2 In1 Ag1,5.439875198746647
Li2 In1 Au1,7.695919314106264
Li2 In1 Bi1,0.5106796508156266
Li2 In1 Ga1,0.3232777174066031
Li2 In1 Ge1,0.3531816329127661
Li2 In1 Hg1,0.5408006770476812
Li2 In1 Ir1,8.442811328687496
Li2 In1 Pb1,0.503307374756521
Li2 In1 Pd1,5.893018931254261
Li2 In1 Pt1,8.268693042445866
Li2 In1 Rh1,6.08368099466222
Li2 In1 Sb1,0.4102078355965012
Li2 In1 Si1,3.539366537398286
Li2 In1 Sn1,5.127598226366976
Li2 Ir1 N2,8.379284178199143
Li2 La1 Al1,0.2331343980486216
Li2 La1 In1,4.883591918512683
Li2 La1 Pb1,6.58782129189273
Li2 La1 Sn1,5.1819205738725564
Li2 La1 Tl1,6.541979923480096
Li2 Lu1 In1,6.484942040594175
Li2 Mg1,0.9942826767629374
Li2 Mg1 Ag1,0.2456722200937418
Li2 Mg1 Au1,0.4298089531545937
Li2 Mg1 Bi1,4.546282963409686
Li2 Mg1 Br4,3.488523196317015
Li2 Mg1 Cd1,3.173601479592749
Li2 Mg1 Cd1 P2,3.1538834725497926
Li2 Mg1 Ga1,0.1748645132233259
Li2 Mg1 Ge1,2.74452653451209
Li2 Mg1 Hg1,5.205206827647472
Li2 Mg1 In1,3.3504198840754307
Li2 Mg1 Pb1,4.949065234292792
Li2 Mg1 Sb1,3.170100076290824
Li2 Mg1 Si1,1.7034142665537235
Li2 Mg1 Sn1,3.3264261550800143
Li2 Mg1 Tl1,5.0084681827554265
Li2 Mg1 Zn1,0.1640805512542381
Li2 Mg1 Zr1 O4,3.909733082641194
Li2 Mg3 Si2,1.837594332032884
Li2 Mn1 Br4,3.76920593733069
Li2 Mn1 Co1 O4,4.216893350428793
Li2 Mn1 Cr1 O4,4.142970383810924
Li2 Mn1 Cu1 O4,4.522168252905709
Li2 Mn1 F4,2.439817696187398
Li2 Mn1 F6,2.1893951953239927
Li2 Mn1 Fe1 O4,4.119478452663279
Li2 Mn1 N1,2.953728870676229
Li2 Mn1 N2,3.738269911158032
Li2 Mn1 Ni1 O4,4.461700270739073
Li2 Mn1 O2,3.482321158303049
Li2 N1,1.628812428235648
Li2 Nb1 F6,3.553496987957808
Li2 Nb1 O1 F5,3.540238085711944
Li2 Nb1 O3,3.969445527704565
Li2 Nd1 Al1,3.795753227985896
Li2 Nd1 As2,4.5714498098501215
Li2 Nd1 Ga1,4.831134733916078
Li2 Nd1 Ge1,4.902122057291231
Li2 Nd1 In1,5.269769980196775
Li2 Nd1 Pb1,6.987411200229593
Li2 Nd1 Tl1,6.985206985003916
Li2 Ni1 N1,3.2467089949450005
Li2 Ni1 O2,3.3171840128997103
Li2 O1,1.9628001560343875
Li2 O2,2.000892516139877
Li2 Os1 N2,8.476184164329625
Li2 Pb1 Au1,9.063081315570702
Li2 Pb1 N2,7.183314497600555
Li2 Pd1,4.698738071569347
Li2 Pd1 Au1,9.28110516332208
Li2 Pd1 O2,4.675217423409427
Li2 Pd1 Pb1,7.713370138511579
Li2 Pm1 Al1,3.874230703644156
Li2 Pm1 Ga1,4.980855400004379
Li2 Pm1 Ge1,5.37563999610159
Li2 Pm1 In1,5.341231075432745
Li2 Pm1 Pb1,7.107494650376074
Li2 Pm1 Si1,4.4579066678615735
Li2 Pm1 Sn1,5.633012610713612
Li2 Pm1 Tl1,7.079503641323022
Li2 Pr1 Al1,3.67635580135718
Li2 Pr1 As2,4.455821633038571
Li2 Pr1 Ga1,4.72012619402648
Li2 Pr1 Ge1,4.691359564836603
Li2 Pr1 In1,5.116491788705504
Li2 Pr1 O3,3.999827409912492
Li2 Pr1 P2,3.4382189404662067
Li2 Pr1 Pb1,6.847777584172094
Li2 Pr1 Tl1,6.789590242784013
Li2 Pt1,8.504145626259909
Li2 Pt1 Au1,0.8808165908537651
Li2 Pt1 O2,7.317822547424058
Li2 Pt1 O6,4.950478494655321
Li2 Pt1 Pb1,1.0081968232703251
Li2 Re1 N2,6.616651138117765
Li2 Rh1 Au1,0.6755198842822722
Li2 Rh1 N2,5.270699515884114
Li2 Ru1 N2,5.253965229322123
Li2 S1,1.6057503644312612
Li2 S1 O4,1.5928722963581872
Li2 Sb1 Au1,7.627413016701888
Li2 Sb1 Pd1,6.165658391545599
Li2 Sb1 Pt1,8.527721711368043
Li2 Sc1 In1,0.2523008686045226
Li2 Sc1 Tl1,0.2240784878441543
Li2 Se1,2.826922362477282
Li2 Si1,1.388555732487856
Li2 Si1 Au1,0.5030121070092798
Li2 Si1 Sn1 S4,2.965496773110087
Li2 Sm1 Al1,4.030811346968509
Li2 Sm1 In1,5.493008058078493
Li2 Sm1 Tl1,7.290083353010702
Li2 Sn1 Au1,7.794051652575919
Li2 Sn1 Bi1,0.5361327408081622
Li2 Sn1 F6,4.03400471531868
Li2 Sn1 Ge1,4.167337570939653
Li2 Sn1 Hg1,7.219316203319741
Li2 Sn1 Ir1,8.678948145657666
Li2 Sn1 N2,5.147801510964374
Li2 Sn1 O4,4.196262221360744
Li2 Sn1 Pb1,0.5045248033157863
Li2 Sn1 Pd1,6.091076267182259
Li2 Sn1 Pt1,8.449157579594152
Li2 Te1,3.3991365697840776
Li2 Ti1 Bi1,5.811404404724751
Li2 Ti1 Cr1 O4,3.9668581643851937
Li2 Ti1 Cu1 O4,4.226866191103956
Li2 Ti1 N2,3.316156942458772
Li2 Ti1 O3,3.4181885454814025
Li2 Ti2 Sb2 O1,4.935369354444263
Li2 Tl1,6.248510312478502
Li2 Tl1 Ag1,7.117079361366273
Li2 Tl1 Au1,9.27643347278775
Li2 Tl1 Bi1,7.656258524321172
Li2 Tl1 Cd1,0.484584127087973
Li2 Tl1 Hg1,0.624575641904044
Li2 Tl1 In1,0.4818170162353395
Li2 Tl1 Pb1,8.004464402251555
Li2 Tl1 Pd1,8.284979901444926
Li2 Tl1 Pt1,10.729748139486588
Li2 Tl1 Rh1,0.4616272856809746
Li2 Tl1 Sb1,0.5088663735075998
Li2 Tl1 Sn1,6.706613303200891
Li2 Tl1 Zn1,0.4640373459645797
Li2 Tm1 In1,6.284791194909691
Li2 Tm1 Tl1,8.202225338960886
Li2 V1 Cr1 O4,4.019077756591448
Li2 V1 Cr1 S4,3.202551939522106
Li2 V1 F4,2.892239189820889
Li2 V1 F6,2.08487830973763
Li2 V1 Fe1 O4,4.033699501807052
Li2 V1 Fe1 S4,3.474737420736266
Li2 V1 N2,3.574672883375192
Li2 V1 Ni1 O4,4.259627127224362
Li2 V1 O1 F5,2.320418256621485
Li2 V1 O2,3.4262223193539616
Li2 V1 O2 F1,3.4248269140458474
Li2 W1 S4,2.695804664729433
Li2 Y1 Al1,2.163940270699982
Li2 Y1 Ga1,0.242132851974096
Li2 Y1 In1,0.3034925816126543
Li2 Y1 Tl1,6.296269637171395
Li2 Yb1 Ge1,6.072034523932599
Li2 Yb1 In1,5.660931143056565
Li2 Yb1 Pb1,7.628367710187315
Li2 Yb1 Si1,5.138016993273955
Li2 Yb1 Sn1,6.162863309386871
Li2 Yb1 Tl1,7.378546800566237
Li2 Zn1 Ag1,0.3432824049563783
Li2 Zn1 Au1,7.71557922264747
Li2 Zn1 Cd1,0.3097325887238335
Li2 Zn1 Cd1 P2,3.9893397581550976
Li2 Zn1 Cu1,0.3093885529380207
Li2 Zn1 Cu3,5.201276115053185
Li2 Zn1 Ga1,0.2845668180119725
Li2 Zn1 Ge1,4.287058252506112
Li2 Zn1 Ge3,4.692499392588756
Li2 Zn1 Hg1,0.4755339968432949
Li2 Zn1 In1,0.3147053167340577
Li2 Zn1 Pb1,6.341654522948648
Li2 Zn1 Pd1,0.4493343026489218
Li2 Zn1 Sb1,4.3698948511038695
Li2 Zn1 Si1,2.811248507871198
Li2 Zn1 Sn1,4.772240585105967
Li2 Zr1 Al1,3.0897832095379814
Li2 Zr1 Cu1 O4,4.794474943736937
Li2 Zr1 F6,3.4594049693228444
Li2 Zr1 N2,4.272989517495178
Li3 Ag1,3.103108439085588
Li3 Ag3 Ge2,6.206657846931799
Li3 Ag3 Sn2,6.562962564709278
Li3 Al1,1.1782876039523007
Li3 Al2,1.5386201705354483
Li3 As1,2.4549847382791863
Li3 Au1,5.770881076888854
Li3 B1,1.1599659339964103
Li3 Be1,0.8333752190716958
Li3 Bi1,4.99210029486996
Li3 Br1 O1,3.0152889491342982
Li3 C1,1.4816795629224442
Li3 Ca1,0.9632590429376198
Li3 Cd1,2.7220389798060305
Li3 Ce1,2.592432308420394
Li3 Ce1 Bi2,6.627051717577711
Li3 Ce1 Sb2,4.970693341374831
Li3 Cl1 O1,2.010312573896276