Composition,Density
Si1 Ni6 Se2,7.609377598921559
Si1 O2,1.4664353926709477
Si1 Os1,13.16049188599396
Si1 P1,2.570197813114392
Si1 P1 Au1,6.841171969284007
Si1 Pb1 O3,8.93326180430379
Si1 Pb3,9.53273092789357
Si1 Pd1,5.589185732095392
Si1 Pd1 O3,6.504851022798701
Si1 Pd2,8.132008820539582
Si1 Pd4,10.00375227001638
Si1 Pt1,12.055890181325836
Si1 Pt2,14.623017453463154
Si1 Pt3,16.718541510695527
Si1 Pt5 Pb1,16.953183156380714
Si1 Rh1,7.763961158654332
Si1 Rh3,10.191930165247385
Si1 Ru1,8.035129790468652
Si1 S1,0.6288316745264756
Si1 S2,1.615089650285192
Si1 Sb1 Os2,13.43304222680342
Si1 Sb1 Pt5,15.530381776584328
Si1 Sb3,6.519550167694571
Si1 Se2,2.560449165329134
Si1 Sn1,4.361247561367914
Si1 Sn1 N2,5.601317269151016
Si1 Sn1 O3,6.323000798145838
Si1 Sn1 Pd5,9.966709319920463
Si1 Sn1 Pt5,16.239936559406324
Si1 Sn3,6.314083156213393
Si1 Tc1,7.643613674892756
Si1 Tc2 As1,0.7258298577783965
Si1 Tc2 Ge1,0.6925541180673319
Si1 Tc2 Mo1,0.7287543029023719
Si1 Tc2 Ni1,0.797281251150314
Si1 Tc2 P1,0.6620642633062749
Si1 Tc2 Sb1,0.6777417658994196
Si1 Tc2 W1,11.820854618546404
Si1 Tc3,9.52840638415747
Si1 Tc4,9.708773414099475
Si1 Te2,5.255403661801773
Si1 Te2 Os1,9.954780533127511
Si1 W1 Cl2,7.383764828196343
Si1 W3,13.59286115204519
Si2 B2 O5,3.3213452212875536
Si2 Hg1 Te1,7.299690371964529
Si2 Ir1,8.814013587136932
Si2 Ir3,13.6825370185995
Si2 Mo1,6.190200108190454
Si2 Ni1,4.7246461428572095
Si2 Ni1 P3,3.3016828488297008
Si2 Ni1 Pd1,6.704245195895607
Si2 Ni1 Se4,5.1380957267720575
Si2 Ni6 B1,7.529756372534496
Si2 O1,1.1701844801502803
Si2 Os1,9.519836750396038
Si2 Os1 Ru1,11.224075227693335
Si2 P4 Ir1,5.258387030217676
Si2 P4 Rh1,3.979480664465296
Si2 Rh3,8.535898925136694
Si2 Ru1,5.691626283515114
Si2 Tc1 Ir1,0.8935377002645002
Si2 Tc1 Os1,10.983111561265977
Si2 Tc1 Rh1,0.7255750062239166
Si2 Tc1 Ru1,0.3461689722416405
Si2 W1,9.689780275080768
Si3 Ag1,4.765314340794717
Si3 As1,4.076110102688075
Si3 As4,4.117944328192042
Si3 B1,3.2523375581570386
Si3 F1,3.2065418848224763
Si3 Ge1,4.100351725755297
Si3 H1,1.939858891153836
Si3 Ir1,7.231855059873617
Si3 Mo1,5.2592629713772565
Si3 Ni1 P4,3.138289446935509
Si3 Os1,8.335836601413888
Si3 P1,3.2948042698975075
Si3 P3 Ir1,5.18523095613885
Si3 P3 Rh1,3.928722739988657
Si3 Pt1,7.114616237868436
Si3 Ru1,5.616075872699205
Si3 Se1,4.112843543133739
Si3 W1,7.764581186991636
Si4 Mo1 W1,7.944692276920149
Si4 P4 Os1,4.606589847639843
Si4 P4 Ru1,3.657796673934657
Si5 C3,1.718849312696058
Si7 Ge1,2.688564198037461
Sm1,7.271516716204516
Sm1 Ag1,8.338704885637735
Sm1 Ag1 As2,7.924517136040141
Sm1 Ag1 Au2,12.528420631199648
Sm1 Ag1 Ge1,8.350809080762879
Sm1 Ag1 Hg2,11.733900977756797
Sm1 Ag1 O2,6.633194428144096
Sm1 Ag1 O3,7.548294383676719
Sm1 Ag1 Pb1,9.87562023524178
Sm1 Ag1 Sn1,7.991965190370624
Sm1 Ag2 Ge2,8.277733691657057
Sm1 Ag2 Hg1,10.53046762760724
Sm1 Ag2 Sn1,8.93765208932433
Sm1 Ag3,8.950807120737018
Sm1 Al1,5.92376489939826
Sm1 Al1 Ag2,7.794143223061621
Sm1 Al1 Cu1,6.6641651424248805
Sm1 Al1 Cu4,7.446857262865123
Sm1 Al1 Ga1,6.244556640492253
Sm1 Al1 Ge1,6.319996595571814
Sm1 Al1 Si1,5.372515361686374
Sm1 Al1 Zn1,6.232879808325738
Sm1 Al2,5.345095454765737
Sm1 Al2 Ge2,5.328850975349873
Sm1 Al2 Ni1,5.747222886031612
Sm1 Al2 Si2,4.165840268525567
Sm1 Al2 Zn2,5.827689700300109
Sm1 Al3,4.671258468509164
Sm1 Al3 Cu1,5.261817008616704
Sm1 Al3 Pd2,6.764598296647755
Sm1 Al4,4.192167693876621
Sm1 As1,7.056143550558759
Sm1 As1 Pd1,8.680611015584445
Sm1 As1 Ru1 O1,8.219842647023292
Sm1 As1 Se1,7.130574709352955
Sm1 As2 Au1,9.66877146206532
Sm1 As2 Pd2,8.844159048624471
Sm1 As3,7.194332923805925
Sm1 Au1,11.22897110575882
Sm1 Au3,14.509754617311769
Sm1 B1 Pd3,9.6256996568239
Sm1 B1 Rh3,10.22342509129987
Sm1 B2,7.359401433589032
Sm1 B2 Ir3,14.95863979755754
Sm1 B2 Rh2 C1,8.490042446537334
Sm1 B2 Rh3,9.793294700935258
Sm1 B2 Ru3,9.730324425597866
Sm1 B6,5.1115032187214045
Sm1 Be1 Cu4,7.822039049339607
Sm1 Be1 O3,7.219036705560466
Sm1 Bi1,8.906506020338272
Sm1 Bi1 Au2,12.96417533805294
Sm1 Bi1 Pd1,9.766891629476316
Sm1 Bi1 Pd2,10.965650379990812
Sm1 Bi1 Te3,6.821519894576852
Sm1 Bi2 Au1,11.630488800583334
Sm1 Bi2 Br1 O4,8.026407564314274
Sm1 Bi2 Cl1 O4,7.857310992273154
Sm1 Bi2 I1 O4,8.140188772695069
Sm1 Bi3,10.38137829034192
Sm1 Br1,7.111567968132256
Sm1 Br1 O1,6.01282988087403
Sm1 Br3,4.833179288025675
Sm1 C2,6.360438902814761
Sm1 C6,4.86636591959123
Sm1 Cd1,7.824250202118452
Sm1 Cd1 Ag2,8.856310479505012
Sm1 Cd1 Au1,10.536930475547482
Sm1 Cd1 Au2,12.2563363150794
Sm1 Cd1 Cu1,8.097900798664975
Sm1 Cd1 Ga1,7.851532406990665
Sm1 Cd1 Hg2,11.316454512002723
Sm1 Cd1 In1,7.873805786597319
Sm1 Cd1 Ni4,9.263929555662433
Sm1 Cd1 Pd1,8.943082532848038
Sm1 Cd1 Pd2,9.679314560121028
Sm1 Cd2,8.1127212541789
Sm1 Cd3,8.131057139846796
Sm1 Cl1 F1,5.712255005536144
Sm1 Cl1 O1,6.123320079185286
Sm1 Cl1 O2,4.98961945543636
Sm1 Cl2,4.145672856954655
Sm1 Cl3,2.8587893696019453
Sm1 Co1 As1 O1,7.733714610620748
Sm1 Co1 C2,7.636167272032579
Sm1 Co1 Ge2,7.980643634929725
Sm1 Co1 Ge3,7.790756099134771
Sm1 Co1 O3,8.056754628664423
Sm1 Co1 P1,7.012194830368189
Sm1 Co1 Sb2,8.16054233150007
Sm1 Co1 Si1,7.287397862530429
Sm1 Co1 Si2,6.522243358122566
Sm1 Co1 Si3,6.082723902241542
Sm1 Co1 Si4,5.421525729574003
Sm1 Co2,9.308683044145614
Sm1 Co2 B2,7.7294137415739295
Sm1 Co2 Cu3,8.731565183594267
Sm1 Co2 Ge2,8.382767089696163
Sm1 Co2 Ni3,8.917245238008343
Sm1 Co2 P2,7.600121483063976
Sm1 Co2 Si2,7.089254797448618
Sm1 Co3 B2,8.637473087045112
Sm1 Co3 Ni2,8.705870180221272
Sm1 Co4 Ag1,8.781966936072275
Sm1 Co4 Cu1,8.760333001561968
Sm1 Co5,8.724372703395728
Sm1 Cr1 O3,7.130569291617402
Sm1 Cr2 B6,6.283652400089143
Sm1 Cr2 Si2,6.303134921729652
Sm1 Cr2 Si2 C1,6.359913089982454
Sm1 Cu1,7.954064254587783
Sm1 Cu1 Ge1,7.804555350961875
Sm1 Cu1 O2,6.073874063835225
Sm1 Cu1 O3,7.869181607659484
Sm1 Cu1 P2,6.47233757364704
Sm1 Cu1 Pb1,9.813999563313596
Sm1 Cu1 Sb2,8.0559213460687
Sm1 Cu1 Se1 F1,7.570448444435533
Sm1 Cu1 Se1 O1,7.406205465610109
Sm1 Cu1 Si1,6.7569072174657485
Sm1 Cu1 Sn1,8.043886927056192
Sm1 Cu2,8.113356985451727
Sm1 Cu2 Ge2,8.051903483210896
Sm1 Cu2 Si2,6.84577614759045
Sm1 Cu4 Ag1,9.06687377571351
Sm1 Cu4 Pd1,9.0748304605313
Sm1 Cu5,8.498335585764057
Sm1 Dy1 C4,6.853065574570226
Sm1 Dy1 Fe4,9.081922053254484
Sm1 Dy1 Hg2,11.077646276096118
Sm1 Dy1 In2,8.196995509047834
Sm1 Dy1 Ir2,13.864140080907314
Sm1 Dy1 Mg2,5.402850953555162
Sm1 Dy1 Ni2,8.852147486316966
Sm1 Dy1 Rh2,10.309962110278082
Sm1 Dy1 Ru2,10.532459856315944
Sm1 Dy1 Tl2,10.66711302221621
Sm1 Dy1 Zn2,7.828933315198516
Sm1 Dy3,8.149616127584961
Sm1 Er1 Fe4,9.172450459984091
Sm1 Er1 Hg2,11.257682261013414
Sm1 Er1 In2,8.391212860837145
Sm1 Er1 Ir2,14.180386103222972
Sm1 Er1 Mg2,5.521592372041263
Sm1 Er1 Mn4,9.190814155251696
Sm1 Er1 Ni2,8.791725634983898
Sm1 Er1 Rh2,10.529473393543917
Sm1 Er1 Ru2,10.755115305283452
Sm1 Er1 Tl2,10.850913880459888
Sm1 Er1 Zn2,8.024165205550393
Sm1 Er3,8.536016949317373
Sm1 Eu1 Hg2,10.25756479296815
Sm1 Eu1 Rh2,9.788614555983193
Sm1 Eu1 S2,6.319944457425492
Sm1 Eu1 Se2,7.1462097042886885
Sm1 Eu1 Zn2,7.049904477160785
Sm1 Eu3,6.28149145654271
Sm1 F2,6.631336839213577
Sm1 Fe1 As1 O1,6.727802583283198
Sm1 Fe1 C2,7.373720829320812
Sm1 Fe1 Co1,8.740419839370308
Sm1 Fe1 Ge2,7.732649487565962
Sm1 Fe1 Ni4,8.666253033674497
Sm1 Fe1 O3,7.066202913845533
Sm1 Fe1 P1,7.252731908882948
Sm1 Fe1 P1 O1,6.39594393098843
Sm1 Fe1 Sb2,8.128305051557838
Sm1 Fe1 Si1,7.045097134749239
Sm1 Fe1 Si2,6.475584062897779
Sm1 Fe2,8.65173443303342
Sm1 Fe2 Ge2,7.868368627305664
Sm1 Fe2 O4,5.696229488946618
Sm1 Fe2 Si2,6.851253528296855
Sm1 Fe5,8.063458590704933
Sm1 Ga1,7.119592748758973
Sm1 Ga1 Au2,12.049184763961309
Sm1 Ga1 Co1,7.705894897621944
Sm1 Ga1 O3,7.727382864072236
Sm1 Ga1 Rh2,10.022850462161909
Sm1 Ga1 Sb2,6.474897499592466
Sm1 Ga1 Si1,6.640523588095207
Sm1 Ga2,7.24394499696331
Sm1 Ga2 Co1,7.7150301336645315
Sm1 Ga2 Ni1,7.737279965746872
Sm1 Ga2 Pd2,8.698872746812011
Sm1 Ga3,7.360697783128211
Sm1 Ga3 Ag1,7.77070709438492
Sm1 Ga3 Au1,9.159526564738146
Sm1 Ga3 Cu1,7.627649478748553
Sm1 Ga3 Ni1,7.559393403844318
Sm1 Ga3 Pd1,8.06799031355888
Sm1 Ga3 Pt1,9.676187362937968
Sm1 Ga5 Co1,7.349529202173005
Sm1 Gd1 Ag2,8.653242993164502
Sm1 Gd1 In2,7.9963764583366785
Sm1 Gd1 S2,6.90177336509703
Sm1 Gd1 Se2,7.553438569703555
Sm1 Gd1 Zn2,7.588473830874243
Sm1 Gd3,7.62864403145452
Sm1 Ge1,7.638860650258942
Sm1 Ge1 Au1,10.422279795725114
Sm1 Ge1 O3,7.320124011921715
Sm1 Ge1 Pd1,8.668199242288381
Sm1 Ge1 Pd3,8.59321247950223
Sm1 Ge1 Pt1,11.163816816025763
Sm1 Ge1 Ru1,8.50854600194382
Sm1 Ge2,7.161992951788903
Sm1 Ge2 Pd2,8.863067214744172
Sm1 Ge2 Rh2,9.131243574848591
Sm1 Ge2 Ru2,8.981756064298775
Sm1 Ge3,7.220620992016914
Sm1 Ge5,6.884155096746283
Sm1 H1 O2,6.199401173699647
Sm1 H2,6.462585853250586
Sm1 H3,6.741575097699096
Sm1 Hf1,10.026973584409186
Sm1 Hg1 Au2,13.818377156679164
Sm1 Hg1 Pd1,11.067981514129762
Sm1 Hg2,10.44074610918181
Sm1 Hg3,12.455331391182368
Sm1 Ho1 Hg2,11.194477286225418
Sm1 Ho1 In2,8.311784236091205
Sm1 Ho1 Ir2,14.012890251588171
Sm1 Ho1 Mg2,5.467383868806425
Sm1 Ho1 Rh2,10.379283921058017
Sm1 Ho1 Ru2,10.64730992801366
Sm1 Ho1 Tl2,10.742035715435392
Sm1 Ho1 Zn2,7.920396414057303
Sm1 Ho3,8.287597333458464
Sm1 Ho3 Ni4,9.144511831710078
Sm1 I1,7.459506933129514
Sm1 I1 O1,6.324083121223915
Sm1 I3,3.906772511971445
Sm1 In1,7.78074673315605
Sm1 In1 Ag2,8.948509486486891
Sm1 In1 Au1,10.49719981054388
Sm1 In1 Au2,12.21198863950096
Sm1 In1 Co2,8.664545958984505
Sm1 In1 Cu1,8.266882529522942
Sm1 In1 Cu2,8.576848172819375
Sm1 In1 Cu4,8.875292575433475
Sm1 In1 Ir1,11.303431167716518
Sm1 In1 Ni1,8.073784556713901
Sm1 In1 Pd1,8.944395080892145
Sm1 In1 Pt1,9.299685025798436
Sm1 In1 Pt4,15.247262541642511
Sm1 In1 Rh1,9.128997977826025
Sm1 In1 Rh2,10.225839902592972
Sm1 In2 Ir1,10.370651841904523
Sm1 In2 Rh1,8.803791758225623
Sm1 In3,8.011284440470048
Sm1 In5 Rh1,8.21750308411351
Sm1 Lu1 Hg2,11.59757810425999
Sm1 Lu1 In2,8.609314703152755
Sm1 Lu1 Mg2,5.728640543852726
Sm1 Lu1 Ru2,11.218616962041974
Sm1 Lu1 Tl2,11.103844085858618
Sm1 Lu1 Zn2,8.259974013016526
Sm1 Lu3,9.142985636088394
Sm1 Mg1,5.096571234110081
Sm1 Mg1 Ag1,6.307065684231686
Sm1 Mg1 Ag2,7.218152764298196
Sm1 Mg1 Au1,8.581417735156185
Sm1 Mg1 Au2,10.75933977598076
Sm1 Mg1 Cd2,6.816238530698672
Sm1 Mg1 Ga1,5.688203826672557
Sm1 Mg1 Hg2,9.90554579572631
Sm1 Mg1 In1,5.98557915779203
Sm1 Mg1 Pd1,6.868486914295406
Sm1 Mg1 Pt1,9.159893853097207
Sm1 Mg1 Rh2,8.540017537563411
Sm1 Mg1 Tl1,7.804094562051901
Sm1 Mg1 Zn2,6.092311817315944
Sm1 Mg2,4.11999898146254
Sm1 Mg2 Ag1,5.600664726402158
Sm1 Mg2 Bi2,6.735751476023
Sm1 Mg2 Sb2,5.2420917539436
Sm1 Mg2 Sc1,3.921446307227925
Sm1 Mg3,3.589122341093898
Sm1 Mg5,3.024179688443774
Sm1 Mn1 Co3 Cu1,8.44952121520048
Sm1 Mn1 Ge2,7.312900009490194
Sm1 Mn1 In1,7.69666717515714
Sm1 Mn1 O3,7.117536561204044
Sm1 Mn1 Sb1 O1,6.651392095841736
Sm1 Mn1 Si1,6.6997917936135565
Sm1 Mn1 Si2,6.258141231979051
Sm1 Mn2 Ge2,7.646189314991602
Sm1 Mn2 Ni3,8.195763984331197
Sm1 Mn2 Si2,6.494913473194526
Sm1 Mn3,7.197998690651461
Sm1 N1,8.35628016436124
Sm1 Ni1,8.235550765771237
Sm1 Ni1 As1,8.143151491950405
Sm1 Ni1 Bi1,9.791968093772564
Sm1 Ni1 C2,7.493090078739988
Sm1 Ni1 Ge2,7.957486529402139
Sm1 Ni1 O3,7.815735873710142
Sm1 Ni1 Sb1,8.189682481760448
Sm1 Ni1 Sb2,8.13101890836286
Sm1 Ni1 Sn1,8.673615525321324
Sm1 Ni2,9.35584644215662
Sm1 Ni2 As2,8.335293761641587
Sm1 Ni2 B2 C1,7.460450591555872
Sm1 Ni2 Ge2,8.234821663733687
Sm1 Ni2 P2,7.524185765142159
Sm1 Ni2 Sb2,8.460340295631246
Sm1 Ni2 Sn2,8.264828659434905
Sm1 Ni5,8.896440943383801
Sm1 O1,9.020264673656614
Sm1 O1 F1,7.047834555277387
Sm1 O2,6.129385408656424
Sm1 O3,4.789436732776768
Sm1 P1,6.137622282387287
Sm1 P1 Pd1,8.015832982191634
Sm1 P1 Pt1,10.385648819197716
Sm1 P2 Pd2,8.26821997158353
Sm1 P2 Ru2,8.46955395566905
Sm1 P3,5.38236293143411
Sm1 Pb1 Au1,11.843426708986364
Sm1 Pb1 Au2,13.202844014183286
Sm1 Pb3,10.289318833258628
Sm1 Pd1,8.935677978298632
Sm1 Pd1 Pb1,10.304654786888692
Sm1 Pd2,8.858729149441546
Sm1 Pd2 Pb1,11.164314457837651
Sm1 Pd3,10.685904889799051
Sm1 Pt1,12.184924908057129
Sm1 Pt2,15.323055147591624
Sm1 Pt3,16.812188407888044
Sm1 Re3,16.881625864996245
Sm1 Rh1,9.764581653543871
Sm1 Rh1 C2,8.12394813537972
Sm1 Rh2,10.636837257717149
Sm1 Rh3 C1,10.429020366250914
Sm1 Ru2,10.52677474709732
Sm1 S1,3.704328868372449
Sm1 S1 F1,6.36416978680683
Sm1 S1 I1,5.019808038752727
Sm1 S2,5.676101474350517
Sm1 Sb1,7.140898160397467
Sm1 Sb1 O3,6.832410945909324
Sm1 Sb1 Pd1,8.510416395133134
Sm1 Sb1 Pt1,9.23092797094404
Sm1 Sb1 Te1,7.489435207699509
Sm1 Sb1 Te3,6.145763368397908
Sm1 Sb2 Au1,9.756568619655624
Sm1 Sb2 Pd1,8.46981193565644
Sm1 Sc1 Si1,5.1933540101107525
Sm1 Se1,5.407297302951275
Sm1 Se2,7.063534738157505
Sm1 Si1,6.372031659335902
Sm1 Si1 Ag1,7.468418059304504
Sm1 Si1 Ni4,8.169582797786134
Sm1 Si1 O3,7.026074818066906
Sm1 Si1 Pd1,7.667409754930837
Sm1 Si1 Pt1,9.811220181842463
Sm1 Si1 Pt3,13.723156910229092
Sm1 Si1 Ru1,7.646743347083611
Sm1 Si2,5.66170072645485
Sm1 Si2 Ag2,7.329399841917912
Sm1 Si2 Au2,10.42883547538997
Sm1 Si2 Ir2,11.04513294135377
Sm1 Si2 Ni1,6.479779868470649
Sm1 Si2 Ni2,6.959536294211599
Sm1 Si2 Os2,11.28590086409069
Sm1 Si2 Pd2,7.874912960155804
Sm1 Si2 Pt2,11.152962610848952
Sm1 Si2 Rh1,6.955977281219679
Sm1 Si2 Rh2,8.077885868015807
Sm1 Si2 Rh3,8.640646300342254
Sm1 Si2 Ru2,7.879569774116995
Sm1 Si2 Ru3,8.55644317578603
Sm1 Si3 Ir1,8.02690891412892
Sm1 Si3 Os1,7.960294430008739
Sm1 Si3 Pt1,7.968321748746902
Sm1 Si3 Rh1,6.4392205656824215
Sm1 Sn1 Au1,9.683673003773642
Sm1 Sn1 Au2,12.126286836476476
Sm1 Sn1 Ir1,11.506267551166935
Sm1 Sn1 Pd2,9.795645606908703
Sm1 Sn1 Pt1,11.2560140763542
Sm1 Sn1 Rh1,9.289546139547689
Sm1 Sn1 Rh2,10.297745676959472
Sm1 Sn2,7.895214644890871
Sm1 Sn3,7.810935038370489
Sm1 Ta3,13.94079321795554
Sm1 Te1,7.437265320096428
Sm1 Te2,7.389149446106376
Sm1 Te3,6.792444287044076
Sm1 Ti1 Ge1,6.751094572127874
Sm1 Ti1 O3,6.820078468672492
Sm1 Tl1,10.164742742521623
Sm1 Tl1 Ag2,10.32465058230726
Sm1 Tl1 Au2,13.307217281067423
Sm1 Tl1 Cd1,9.638908832005184
Sm1 Tl1 O2,8.732319362271216
Sm1 Tl1 Pd1,10.857896682837648
Sm1 Tl1 S2,6.250527039146791
Sm1 Tl1 Se2,6.904156126320365
Sm1 Tl1 Te2,6.929277338212523
Sm1 Tl1 Zn1,9.491062666064394
Sm1 Tl3,11.333558900735571
Sm1 Tm1 Hg2,11.39558860993092
Sm1 Tm1 In2,8.48882250515343
Sm1 Tm1 Mg2,5.572585719376069
Sm1 Tm1 Rh2,10.683617104267402
Sm1 Tm1 Ru2,10.899975968692049
Sm1 Tm1 S2,7.453545408630529
Sm1 Tm1 Tl2,10.882781133025311
Sm1 Tm1 Zn2,8.11033850631512
Sm1 Tm3,8.746085570620743
Sm1 V1 O3,6.9568406930946685
Sm1 Y1 Ag2,7.529080141952887
Sm1 Y1 Al2,5.031128654733024
Sm1 Y1 Co2 Ni2,8.32040709542495
Sm1 Y1 Co4,8.457621979257132
Sm1 Y1 Cu4,7.341856505295163
Sm1 Y1 Fe4,7.6338149863848255
Sm1 Y1 Hg2,9.90892482290291
Sm1 Y1 In2,7.061040131514479
Sm1 Y1 Ir2,12.355976623697735
Sm1 Y1 Mg2,4.271801731664487
Sm1 Y1 Ni2,7.191541388835978
Sm1 Y1 O2,5.777725254782315
Sm1 Y1 Rh2,8.80686167730081
Sm1 Y1 S2,5.7233638173172094
Sm1 Y1 Se2,6.620887833056494
Sm1 Y1 Tl2,9.55008026083045
Sm1 Y1 Zn2,6.495033815577151
Sm1 Y3,5.197709926396514
Sm1 Zn1,7.441272299573155
Sm1 Zn1 Ag1 As2,7.096225656215846
Sm1 Zn1 Ag1 P2,6.372939703282901
Sm1 Zn1 Ag2,8.491454938062411
Sm1 Zn1 Au2,12.07617821154509
Sm1 Zn1 Cu1 As2,7.008455433605999
Sm1 Zn1 Cu1 P2,6.04764421902794
Sm1 Zn1 Ga1,7.3061975410712625
Sm1 Zn1 In1,7.614807603338692
Sm1 Zn1 Ni1,8.145578636929729
Sm1 Zn1 P1 O1,6.228321400468992
Sm1 Zn1 Pd1,8.520441205347323
Sm1 Zn1 Si1,6.463894500006747
Sm1 Zn2,7.361770162080549
Sm1 Zn2 Ag1,8.217632997467472
Sm1 Zn2 As1 O2,4.079664354382648
Sm1 Zn2 Cd1,7.943190293270435
Sm1 Zn2 Ga2,7.392502804371425
Sm1 Zn5,7.506664297130109
Sm1 Zr1,7.2300148851634995
Sm2 Ag1 Ge6,7.236212209575673
Sm2 Ag1 Hg1,9.528924762986907
Sm2 Ag1 Ir1,10.737832504473426
Sm2 Ag1 Rh1,9.124827759117276
Sm2 Ag1 Ru1,9.188909588920186
Sm2 Ag1 Sb3,0.3688951466257073
Sm2 Ag1 Sn1,8.114007267665757
Sm2 Ag2 O5,7.965028336131287
Sm2 Al1 Ag3,7.894908074434149
Sm2 Al1 Cd1,6.87440711426587
Sm2 Al1 N1 O3,7.6229017165448125
Sm2 Al1 Ni2,7.671613360393848
Sm2 Al1 Zn1,6.571095237080794
Sm2 As1 Se1,7.20837678641933
Sm2 As2 O5,6.308985989137491
Sm2 As3 Au1,0.3891789330658153
Sm2 Au2 O5,10.150660377007387
Sm2 Bi1,9.008228174262737
Sm2 Bi1 O2,8.211998287266278
Sm2 Br2 F1,3.691732565102478
Sm2 Br2 O1,3.2237676103218424
Sm2 C1,6.963793530005235
Sm2 C1 N2 O2,5.786263051471589
Sm2 Cd1 In1,7.813646572749219
Sm2 Cd1 Ir1,10.423137162524103
Sm2 Cd1 Ni2,8.248516747365441
Sm2 Cd1 Sb3,0.38786449625394
Sm2 Cd1 Sb4,7.336884093351143
Sm2 Cl2 F1,3.223616588958288
Sm2 Cl2 O1,2.7207198541811404
Sm2 Cr2 C3,7.37282680437665
Sm2 Cu1 Ge4,7.44836333324017
Sm2 Cu1 Ge6,7.187868216504492
Sm2 Cu1 Ir1,10.604455263499064
Sm2 Cu1 O4,7.575626216473968
Sm2 Cu1 Ru1,9.040042877239758
Sm2 Cu1 Se2 F1,5.095825677161052
Sm2 Cu1 Se2 O1,5.124398185769389
Sm2 Cu3 Sn3,6.798458703754649
Sm2 Fe1 As2 O1,5.377509471982193
Sm2 Fe1 Ge4,7.541087037938512
Sm2 Fe1 P2 O1,4.471918018215858
Sm2 Fe1 Si3,6.240871250595718
Sm2 Fe2 As2 O1,7.44920279910429
Sm2 Fe2 O5,6.307968740907935
Sm2 Fe2 Se2 O3,6.647675342511287
Sm2 Fe2 Si2 C1,7.0127113300261765
Sm2 Fe3 Ru1,9.059548476448487
Sm2 Ga1 Ag1,7.859259936065423
Sm2 Ga1 Co2,8.354128984340333
Sm2 Ga1 Ni2,8.312517235020994
Sm2 Ga3 Co1,7.552744113699581
Sm2 Ga3 Cu1,7.526094610477018
Sm2 Ga3 Ni1,7.905830040180656
Sm2 Ge1 Rh3,10.143112205984467
Sm2 Ge1 Ru3,10.10479166054502
Sm2 Ge3,6.943793796363032
Sm2 Ge3 Ir3,10.65969136946241
Sm2 Ge3 Pt1,8.984749065989005
Sm2 Ge3 Pt3,10.562693893639254
Sm2 Ge6 Au1,7.963798938226156
Sm2 Ge6 Pd1,7.376265576344224
Sm2 Ge6 Rh1,7.4020316322304
Sm2 Hg1 Pb1,10.318867758208684
Sm2 I2 F1,3.977592958711364
Sm2 I2 O1,4.2744786587926455
Sm2 In1,7.49090828404851
Sm2 In1 Ag1,7.952474323726756
Sm2 In1 Hg1,9.110846960938252
Sm2 In1 Ni2,8.256452495095465
Sm2 In3 Cu1,7.9269075405517455
Sm2 In3 Ni1,7.889700821341191
Sm2 In3 Sn3,7.902844609492387
Sm2 Ir1 Au1,12.373708546929556
Sm2 Ir1 Pd1,11.212651177343773
Sm2 Ir1 Rh1,11.485505059003946
Sm2 Ir1 Ru1,11.65962568419314
Sm2 Mg1,5.871281747170098
Sm2 Mg1 Al1,5.534059827834873
Sm2 Mg1 Cd1,6.469439202613325
Sm2 Mg1 In1,6.4719203150793545
Sm2 Mg1 Ir1,9.031585197015437
Sm2 Mg1 Ru1,7.388379541760419
Sm2 Mg1 Tl1,7.680933495997856
Sm2 Mn1 Ga6,7.423793399870842
Sm2 Mn1 Sb2 O1,5.408845648573248
Sm2 Mn1 Sb3,0.3487703167120185
Sm2 Mn1 Si2,5.858074222466596
Sm2 Mo2 C3,7.95888060270439
Sm2 Ni1 Ge3,7.6305618920991645
Sm2 Ni1 Ir1,10.96629333995456
Sm2 Ni1 Ru1,9.105558813729408
Sm2 Ni1 Sn4,7.968941253760034
Sm2 O1,7.975357339320386
Sm2 O3,6.691225869096116
Sm2 P3 Pt4,11.80371861492278
Sm2 Pd1 Rh1,9.484830894811026
Sm2 Pd1 Ru1,9.61208623159874
Sm2 Re2 Si2 C1,9.819725641114209
Sm2 Ru1 Au1,10.892818627948676
Sm2 S1 O2,6.729963740943687
Sm2 S2 F1,4.0314052023319205
Sm2 Sb1,7.822713354824576
Sm2 Sb1 O2,7.08668460490283
Sm2 Sb1 S1,6.830517613731068
Sm2 Sb3 Au1,0.3717954856115582
Sm2 Sb3 Pd1,0.1587233460779186
Sm2 Se1 O2,7.219437382046058
Sm2 Se2 F1,5.183897202729114
Sm2 Si2 Ru1,6.669447482700237
Sm2 Si3 Ge1,6.072930081735313
Sm2 Si3 Ir3,9.886184506431931
Sm2 Si3 Ni1,6.269311932304262
Sm2 Si3 Pd1,6.702590287698132
Sm2 Si3 Pt1,7.894959585603594
Sm2 Si3 Pt3,9.820078200309332
Sm2 Te1 O2,7.363484218484583
Sm2 Ti1 Ge2,6.241997810361156
Sm2 Tl1,9.219019501550854
Sm2 Tl1 Ag1,9.248284189227537
Sm2 Tl1 Cd1,8.992258082762422
Sm2 Tl1 Hg1,10.357131106881097
Sm2 Tl1 In1,8.989544930148355
Sm2 Tl1 Zn1,8.789262598699677
Sm2 Zn1 Ag1,7.865824939657038
Sm2 Zn1 Ga1,7.40962441082813
Sm2 Zn1 Hg1,9.028261567856603
Sm2 Zn1 In1,7.488595311166114
Sm2 Zn1 Ir1,10.26567626971487
Sm2 Zn1 Ru1,8.65133585491806
Sm2 Zn1 Sb3,0.2364315859250658
Sm2 Zn1 Sb4,7.336556940386264
Sm3 Ag1,8.027895453638104
Sm3 Al1,6.933223719991225
Sm3 Al1 C1,6.415793167075604
Sm3 Al1 N1,4.99683806206286
Sm3 Au1,9.565517657083806
Sm3 Cd1,7.732295713846863
Sm3 Co2 Ge4,8.019099410276073
Sm3 Cr1,7.238140362145246
Sm3 Dy1,7.593592130563714
Sm3 Dy1 S4,6.880963708680004
Sm3 Er1,7.607617675083427
Sm3 Er1 S4,7.000578585455137
Sm3 Eu1,7.063277752953962
Sm3 Ga1,7.79091299545298
Sm3 Ga1 C1,7.068898461902689
Sm3 Gd1,7.492016773361367
Sm3 Ge4 Ru2,8.315710501637577