Composition,Density
Ag1,9.888473947036914
Ag1 As1,7.941189801728027
Ag1 As1 F6,3.264040327164285
Ag1 As1 O2,5.066045767798683
Ag1 As1 Ru2,10.185426461398478
Ag1 As1 Se2,6.446551481834724
Ag1 Au1,14.028065961543124
Ag1 Au1 O2,8.947457572129613
Ag1 Au1 S2,5.660237988889108
Ag1 Au3,15.957040563477603
Ag1 B1 O3,6.548744367105115
Ag1 B2,6.668703845978472
Ag1 Bi1 O2,7.582117351272498
Ag1 Bi1 Pb1 S3,7.057910390573253
Ag1 Bi1 Pd2,11.71361008913556
Ag1 Bi1 S2,6.932464224774485
Ag1 Bi1 Se1 S1,7.407995033474446
Ag1 Bi1 Se2,4.298290935817174
Ag1 Bi1 Te1 Se1,7.822255408644641
Ag1 Bi1 Te2,7.832653923155901
Ag1 Bi1 Te3 Pb1,7.856104366659133
Ag1 Br1,4.917995433683658
Ag1 Br1 O2,3.090846976931512
Ag1 Br1 O3,4.572963514409799
Ag1 C1,6.542021510073919
Ag1 C1 N1,3.0973646246145288
Ag1 C1 N1 O1,3.4215856025807203
Ag1 C6,1.7554407701141153
Ag1 Cl1,5.356180845292489
Ag1 Cl1 O2,2.6867736649012284
Ag1 Cl1 O3,4.1342602849418615
Ag1 Cl1 O4,3.4767563227761213
Ag1 F1,6.624220955833901
Ag1 F2,5.061926680155515
Ag1 Ge1 Au2,1.0752770697636704
Ag1 Ge1 Bi1 Te3,7.308731531874199
Ag1 Ge3,6.860004287321993
Ag1 H1,7.757016317640359
Ag1 H1 O2,4.216910870486556
Ag1 Hg1,12.105573628551594
Ag1 Hg1 O2,8.607439519434182
Ag1 Hg1 Pd2,12.40963548115666
Ag1 Hg3,12.889389675443114
Ag1 I1,0.5321381835694491
Ag1 I2,5.145414428420103
Ag1 Ir1,15.46694780888715
Ag1 N1,4.802481289392578
Ag1 N1 O2,3.945509421071105
Ag1 N1 O3,4.21374420425511
Ag1 N3,4.322439136641746
Ag1 O1,6.3241740485333695
Ag1 O2,4.736419902247412
Ag1 O2 F1,4.20640771062423
Ag1 P1 F6,2.980259016074546
Ag1 P1 Pd5,10.097154607475742
Ag1 P1 Pt5,16.551072170711873
Ag1 Pb1 Br1 O1,5.909104663224649
Ag1 Pb1 F6,5.040407641408272
Ag1 Pb1 O2,7.721378428408064
Ag1 Pb3,10.542457753730062
Ag1 Pd1,10.69361505301019
Ag1 Pd1 Au2,14.43008853016432
Ag1 Pd1 O2,7.149245035556582
Ag1 Pd2 Au1,1.0050637865401093
Ag1 Pd2 Pb1,0.8649713132822026
Ag1 Pt1,15.149805275056655
Ag1 Pt1 O2,9.797313901605593
Ag1 Pt3,17.89164822597189
Ag1 Pt4,18.35505915317008
Ag1 Rh1,10.893824043721382
Ag1 Rh1 O2,7.551818652306676
Ag1 Sb1 N2,7.365692790964949
Ag1 Sb1 Pb1 S3,6.283097735658409
Ag1 Sb1 Pb2 S4,6.430269642082305
Ag1 Sb1 Pd2,0.8686486555017762
Ag1 Sb1 S2,5.64479599401018
Ag1 Sb1 Se1 S1,6.259735506212973
Ag1 Sb1 Se2,6.639287966234777
Ag1 Sb1 Te1 Se1,6.878996782445512
Ag1 Sb1 Te2,5.725257131034621
Ag1 Sb1 Te3 Pb1,7.312595981344026
Ag1 Se1,5.811062404994471
Ag1 Sn1 Au2,1.0777010283967718
Ag1 Sn1 F6,4.416421521296332
Ag1 Sn1 N1,7.835110187880023
Ag1 Sn1 Pd2,0.835065372792212
Ag1 Sn1 Rh2,0.8585207697468722
Ag1 Sn1 S2,5.731764175555679
Ag1 Sn1 Se2,6.746249424080593
Ag1 Sn1 Te2,6.977893003537542
Ag1 Sn3,7.522514060079257
Ag1 Te2 Au1,8.702003795334129
Ag1 Te3,6.533483016971941
Ag1 W1 S4 N1,3.732729927670206
Ag2 As1 S4 N1,3.910688869017461
Ag2 B1 Br1,6.828267002085727
Ag2 Bi1 Sb1 Se4,7.179529875820542
Ag2 Bi1 Sb1 Te2 Se2,7.329475559716415
Ag2 Bi1 Sb1 Te4,7.423833901652597
Ag2 Bi2 Se1 S3,7.108014722541554
Ag2 F1,8.30967891480713
Ag2 Hg1,11.530115896660352
Ag2 Hg1 Au1,1.0183001005818622
Ag2 Hg1 I4,1.2601499778830094
Ag2 I1 O6,3.679616397879488
Ag2 O1,6.784390642779099
Ag2 Pb1 I4,6.053269971215515
Ag2 Pd1 Au1,0.9251373251805958
Ag2 Pd1 O2,8.197237478842462
Ag2 S1,5.62219714213187
Ag2 Se1,0.6336968386367088
Ag2 Sn1 Bi1 S4,6.344301699808256
Ag2 Sn1 Bi1 Se4,7.1167003642172535
Ag2 Te1,7.378891534122235
Ag3 As1,8.97010786009527
Ag3 Au1,11.920523580222474
Ag3 Au1 S2,6.072211434500265
Ag3 B1 O3,6.402022767932245
Ag3 Bi1,9.99742337012961
Ag3 Br1,7.648671575046948
Ag3 Cl1,7.33751677069213
Ag3 F1,8.506404503323726
Ag3 Ge1,8.963697780882413
Ag3 Hg1,11.376760916596703
Ag3 N1,8.957016366320707
Ag3 O1,8.823462748311494
Ag3 P1,8.421605195423677
Ag3 Pb1,10.17271022464034
Ag3 Pd1,10.315595590074151
Ag3 Pt1,12.460414061673449
Ag3 Rh1,10.335685136954602
Ag3 Ru1,10.235891254320787
Ag3 S1,8.177007044993303
Ag3 S1 Br1,6.124830461748297
Ag3 S1 I1,6.373934116559119
Ag3 S1 I3,0.3480182713417339
Ag3 Sb1,8.989131441280312
Ag3 Sb1 Te4,7.401268060763414
Ag3 Se1,8.76189601499747
Ag3 Sn1,9.054311103109846
Ag3 W1,12.21069069958338
Ag4 Au1 S2,8.13036619981891
Ag4 S1 I1,6.274915504545333
Ag6 Sn1 Sb1,9.331257033552562
Ag8 S1,7.81870529998439
Al1,1.862921959131504
Al1 Ag1,6.634265612522639
Al1 Ag1 Au2,0.985097250711628
Al1 Ag1 B1,5.245118397368363
Al1 Ag1 O2,6.059586749695414
Al1 Ag1 O3,4.730922084847537
Al1 Ag1 S2,3.801893009561081
Al1 Ag1 Se2,4.791076152756863
Al1 Ag1 Sn1 Se4,4.768387617941062
Al1 Ag1 Te2,5.137259665559302
Al1 Ag2,7.814765925012479
Al1 Ag3,8.320607458548649
Al1 Ag4,8.671245147627953
Al1 As1,3.590699212089334
Al1 As1 O4,2.7023230713344515
Al1 As1 Pt5,15.952895609184614
Al1 Au1,10.542352100081162
Al1 Au1 O2,9.213030030164534
Al1 Au1 O3,8.486096191787198
Al1 Au2,13.713129878032277
Al1 Au3,14.701260298335596
Al1 Au4,14.968187302681958
Al1 B1 Mo1,6.301295930275863
Al1 B1 N2,3.329718034442567
Al1 B1 W1,10.439683293049994
Al1 B2,3.14766621242468
Al1 B2 Pb1,6.498010018949916
Al1 B3 N4,3.382682590395833
Al1 Bi1,5.843468147794531
Al1 Bi1 O3,6.037051899615939
Al1 Bi3,9.301753133620576
Al1 C3,3.169636157458004
Al1 C3 N3,1.223134658578643
Al1 C6,1.073068345783191
Al1 Cd1 Cu3 Se4,5.311502273762277
Al1 Cd1 In1 S4,3.803964728868889
Al1 Cd1 Rh2,0.6734150877811782
Al1 Cd1 Sb1 Te1,4.888002666771517
Al1 Cd3,7.035827706738082
Al1 Cl1 O1,2.6422782127521254
Al1 Cl3,2.215248954324524
Al1 Co1,6.13676897511371
Al1 Co1 F5,3.550746334370992
Al1 Co1 N2,4.571657627377595
Al1 Co1 Ni6,8.287713674717164
Al1 Co1 O3,4.409719414937844
Al1 Co2 Ni1,7.436709386935059
Al1 Co2 Si1,5.201701173792208
Al1 Co2 Si2,5.387585789899458
Al1 Co3,7.406343710362048
Al1 Co3 C1,6.9444222571555
Al1 Co4,7.594940255047482
Al1 Cr1 Co2,7.024895043304369
Al1 Cr1 Cu2,6.546075704436335
Al1 Cr1 F5,3.2818917917759687
Al1 Cr1 Fe2,6.501543606442883
Al1 Cr1 Ge1,5.97556550535159
Al1 Cr1 N2,4.026321743322255
Al1 Cr1 Ni1,5.977395344157928
Al1 Cr1 Ni2,6.7281864265891125
Al1 Cr1 O3,3.863934818304003
Al1 Cr1 O4,4.099564997157099
Al1 Cr1 Os2,1.0973582777897368
Al1 Cr1 Ru2,8.726919397245743
Al1 Cr1 Tc2,0.6324101270288445
Al1 Cr2,5.73337323553684
Al1 Cr2 B2,5.327369201739659
Al1 Cr2 C1,5.338343764116955
Al1 Cr2 W1,0.6432877110648323
Al1 Cr3 B4,5.374775033486165
Al1 Cr3 Si1 Mo3,7.61246737496055
Al1 Cr4 Ga1 C2,6.131138957374102
Al1 Cr6 Si1,6.432723566648577
Al1 Cu1,5.581466500966712
Al1 Cu1 Au2,12.907325380401526
Al1 Cu1 F5,3.712872243639576
Al1 Cu1 Ge1 Se4,4.73835074893937
Al1 Cu1 Ni2,0.6319354737681268
Al1 Cu1 Ni6,8.2591994271699
Al1 Cu1 O2,4.9640654375219855
Al1 Cu1 O3,4.544378009211107
Al1 Cu1 Pd2,9.014918994937128
Al1 Cu1 Pt2,14.13017049848768
Al1 Cu1 Rh2,0.736774011332873
Al1 Cu1 S2,3.435993537364091
Al1 Cu1 Se1 S1,4.099794373196334
Al1 Cu1 Se2,4.651354686358684
Al1 Cu1 Sn1 Se4,4.801565692513809
Al1 Cu1 Te2,5.129281725429765
Al1 Cu3,7.266883810067712
Al1 Cu3 Hg1 Se4,5.947525255485975
Al1 Cu3 N3,6.394563970798972
Al1 Cu3 Pb1 Se4,5.5875581243675
Al1 F3,2.7132280261986943
Al1 Fe1,4.614313908264683
Al1 Fe1 Co2,7.183512825615721
Al1 Fe1 F5,3.4209925357098374
Al1 Fe1 Ir2,1.164526869932728
Al1 Fe1 N2,4.494652560404869
Al1 Fe1 O3,3.955828732210649
Al1 Fe1 Rh2,8.787100445549703
Al1 Fe1 Ru2,0.7768846572416486
Al1 Fe1 Tc2,0.5054166379259585
Al1 Fe2,6.093348966420929
Al1 Fe2 B2,5.791994058763091
Al1 Fe2 Ge1,0.4528237311862831
Al1 Fe2 Mo1,7.741150964994515
Al1 Fe2 Ni1,6.944882454526565
Al1 Fe2 Si1,6.289050136508479
Al1 Fe2 W1,10.595547212608556
Al1 Fe3,6.647849572889001
Al1 Fe3 B1,6.105405143121323
Al1 Fe3 C1,6.473381531640895
Al1 Fe3 H1,6.501085531143387
Al1 Fe3 N1,6.737893041831554
Al1 Fe3 O1,5.0217736515980285
Al1 Fe4,6.955049356592048
Al1 Ga1 As2,4.332310284746595
Al1 Ga1 Co2,0.5748216976314825
Al1 Ga1 Cu2 S4,3.859674066956857
Al1 Ga1 Cu2 Se2 S2,4.476543572845931
Al1 Ga1 Cu2 Se4,5.019132513402924
Al1 Ga1 Ir2,1.1221025219885858
Al1 Ga1 N2,4.630279982767957
Al1 Ga1 Ni2,0.6025104288935254
Al1 Ga1 Ni6,8.203433794651996
Al1 Ga1 P2,3.159060128178272
Al1 Ga1 Pd2,0.6614652528685226
Al1 Ga1 Ru2,0.6963022423123616
Al1 Ga1 Sb2,4.681558123683967
Al1 Ga3,5.401337418950495
Al1 Ga3 N4,5.293715198628516
Al1 Ge1 Mo1,7.105681099592924
Al1 Ge1 Ru2,9.159919270444506
Al1 Ge3,5.427653196999068
Al1 H1 O2,0.3080496840663329
Al1 H3,1.459511166420553
Al1 In1 Ag2 S4,4.297734585710501
Al1 In1 Ag2 Se4,5.147794187247591
Al1 In1 B1,4.63098618567449
Al1 In1 Cu1 O4,5.5452647507242645
Al1 In1 Cu2 S4,4.059538012329766
Al1 In1 Cu2 Se4,5.115242565748683
Al1 In1 Ga1 Sb3,4.968221828656634
Al1 In1 N2,5.397905906023322
Al1 In1 O3,6.1486002611286406
Al1 In1 Sb2,4.815494686234951
Al1 Ir1,13.244937958176171
Al1 Ir1 O3,9.019509478935856
Al1 Mo1 O3,4.409089114959139
Al1 Mo3,8.470007673129778
Al1 N1,3.1928815143875897
Al1 N1 F4,2.38397446403449
Al1 Ni1,5.712371063731962
Al1 Ni1 F5,3.675852868538606
Al1 Ni1 Ge1,5.849290790531293
Al1 Ni1 O3,4.529178568321998
Al1 Ni1 Pt2,1.144512812579929
Al1 Ni1 Rh2,0.7252236924674759
Al1 Ni2,6.948461253065844
Al1 Ni2 As1,6.48053315730131
Al1 Ni3,7.448140171644868
Al1 Ni3 C1,6.712361824755088
Al1 Ni3 Sb1,7.432710255899237
Al1 Ni4 As3,7.082197406310816
Al1 Ni6 Ge1,8.369991205613657
Al1 Ni6 Pd1,8.632502143337234
Al1 O1,3.1824419169671163
Al1 O1 F3,2.969212059333338
Al1 O2,3.34037363811511
Al1 O3,2.106750624272028
Al1 O3 F3,2.0051307278717
Al1 Os1,13.121639371456048
Al1 P1,0.5283864986785564
Al1 P1 O4,2.0713903333080634
Al1 P1 Pt5,15.969300246788096
Al1 P1 S4,1.70984775351459
Al1 P2 S6,2.189409626462303
Al1 Pb1 O3,8.311042316450266
Al1 Pb3,9.2223507721332
Al1 Pd1,7.491359435392077
Al1 Pd3,9.622825410394643
Al1 Pd5 I2,7.73444748792278
Al1 Pt1,12.4042543511047
Al1 Pt3,16.826103594812515
Al1 Pt3 C1,14.140688509233518
Al1 Re1,12.276299972751705
Al1 Re1 Ge1,10.839345501009248
Al1 Re1 Si1,9.703823894807714
Al1 Re1 Tc2,0.9218750973216931
Al1 Re2,15.207200431275773
Al1 Rh1,7.9347519244194435
Al1 Rh3,9.84979607564759
Al1 Ru1,7.832534964691828
Al1 Ru2 W1,0.9367453309124072
Al1 Sb1,4.078412269278146
Al1 Sb1 O3,4.911471828166962
Al1 Sb1 O4,5.632514526292365
Al1 Si1,2.920306860855885
Al1 Si1 C1 N1,3.1803849836449025
Al1 Si1 Mo1,5.76772525188633
Al1 Si1 Mo6,8.628213716944135
Al1 Si1 Ni2,0.443174898655107
Al1 Si1 Ni6,7.76613682969555
Al1 Si1 O3,3.796389442753493
Al1 Si1 Pt6,16.915041446428795
Al1 Si1 Ru2,8.201259241145197
Al1 Si1 Tc2,0.5583753276683325
Al1 Si2 O6,2.165276351928956
Al1 Si3 W2,9.395586226151709
Al1 Sn1,4.793270592807986
Al1 Sn1 F5,3.731429730632264
Al1 Sn1 O3,4.890131134048122
Al1 Sn1 Ru2,0.671185819945509
Al1 Tc2,8.663480979545463
Al1 Tc2 Ge1,0.6422757138425419
Al1 Tc2 Mo1,0.7092541630482677
Al1 Tc2 Pb1,10.380449275594453
Al1 Tc2 Sb1,0.6681792596930055
Al1 Tc2 W1,0.8913558403239428
Al1 Tc3,9.18696124674635
Al1 Tl1 F4,5.761775532994147
Al1 Tl1 Fe2 F2,4.166754429455068
Al1 Tl1 O2,6.618871080493953
Al1 Tl1 Se2,5.885180658576794
Al1 V1,4.525185557749975
Al1 V1 Co2,6.81854337666623
Al1 V1 Cr1 C1,5.094632099567751
Al1 V1 Cr2,0.3819189850253857
Al1 V1 F5,3.263644536577369
Al1 V1 Fe1 Co1,6.801107759541363
Al1 V1 Fe2,6.288797404332348
Al1 V1 Ni1,4.9001144618731125
Al1 V1 Ni2,6.6729401042553365
Al1 V1 O3,3.742320545725786
Al1 V1 Os2,13.88221129826374
Al1 V1 Pt1,8.983501643288964
Al1 V1 Re2,1.041840470375667
Al1 V1 Ru2,8.575394573808968
Al1 V2,5.060291952263772
Al1 V2 C1,4.872389281960079
Al1 V2 Fe1,5.805536461345588
Al1 V2 W1,0.5760242163951405
Al1 V3,5.326066777883863
Al1 V6 Ga1,6.04413782018833
Al1 V6 Ge1,6.116798638273849
Al1 V6 Sb1,6.494104925610529
Al1 V6 Sn1,6.387969117117306
Al1 W1 C1,9.445064092661278
Al1 W1 C2,9.210403970809852
Al1 W1 F5,5.145118705444246
Al1 W1 O3,6.539337831097735
Al1 W1 O4,7.187899025398239
Al1 W2 C1,12.554269370297831
Al1 W3 C4,12.293106606732064
Al1 Zn1 Au2,0.9882242500721772
Al1 Zn1 Co2,0.5660946964101945
Al1 Zn1 Cu2,0.5420368862793987
Al1 Zn1 Cu3 Se4,5.325970543751921
Al1 Zn1 Ga1 S4,3.197086704335698
Al1 Zn1 Ir2,14.261102951562068
Al1 Zn1 Ni2,0.6162847501016978
Al1 Zn1 Pd2,0.6923384171556485
Al1 Zn1 Rh2,9.017765234130332
Al2 Au1,7.476904945279304
Al2 B2 Ru3,7.89156718664936
Al2 C1 O1,3.1719847160868366
Al2 Cd1 S4,3.0000152210401643
Al2 Cd1 Se4,4.257187857187697
Al2 Cd1 Te4,4.750712416975053
Al2 Co1 Ir1,9.846395986542834
Al2 Co1 Ni1,5.997869846349266
Al2 Co1 Os1,9.731906872824442
Al2 Co1 Rh1,0.5749709532508168
Al2 Co1 Ru1,6.959685518251793
Al2 Co1 Tc1,0.4626112502580661
Al2 Cr1 B2 Mo1,5.57491222041338
Al2 Cr1 Fe1,0.3700426114991766
Al2 Cr1 Fe1 Co4,7.137034879353089
Al2 Cr1 Ir1,0.662914923668528
Al2 Cr1 Tc1,0.4301970506859836
Al2 Cu1,4.004613179778768
Al2 Cu1 Ir1,0.7325105916387715
Al2 Cu1 Mo1,6.101619797630046
Al2 Cu1 Ni1,0.3986043149572448
Al2 Cu1 Pd1,0.5250346277943169
Al2 Cu1 Rh1,0.6060188965283264
Al2 Cu1 Tc1,0.5703982400721648
Al2 Fe1 Co1,5.955942971740328
Al2 Fe1 Cu1,0.38574278928761
Al2 Fe1 Ir1,9.665035141862957
Al2 Fe1 Ni1,5.904564256177336
Al2 Fe1 Pt1,0.7511719053456226
Al2 Fe1 Rh1,0.5535668447695636
Al2 Fe1 S4,2.861960634630913
Al2 Fe1 Tc1,0.4246885410557959
Al2 Hg1 S4,3.882167802914123
Al2 Hg1 Se4,5.0144689650166425
Al2 Hg1 Te4,5.371464354666746
Al2 Ir1 Os1,13.209460872420294
Al2 Ir1 Rh1,10.567764910704575
Al2 Ir1 Ru1,10.575964062844086
Al2 Ni1 Os1,9.656485953419496
Al2 Ni1 Pt1,0.5190666617247884
Al2 Ni1 Ru1,6.966921686835177
Al2 O1,2.520648916971109
Al2 O3,2.834676690914064
Al2 Os1,9.597862886389052
Al2 Os1 Pd1,0.5204355672422981
Al2 Os1 Pt1,1.013008041811483
Al2 Os1 Rh1,0.8407321322850042
Al2 Os1 Ru1,0.6288014048610701
Al2 Pd1,5.071368202211684
Al2 Pd1 Pt1,0.8140121899718193
Al2 Pd1 Ru1,7.836060881500245
Al2 Pt1,7.858008758661247
Al2 Ru1,6.098591757456369
Al2 Ru1 Pt1,10.46384156239788
Al2 Ru1 Rh1,7.905751475895368
Al2 Si4 Mo3,5.939778065376804
Al2 Sn1,3.800187770006927
Al2 Tc1 Au1,0.7441175784431855
Al2 Tc1 Ir1,0.7674307664145581
Al2 Tc1 Ni1,0.4689326262740626
Al2 Tc1 Pd1,0.5878254155862185
Al2 Tc1 Pt1,0.8093080409444315
Al2 Tc1 Rh1,0.5587502331743117
Al2 Tc2 O5,5.79679742338876
Al2 Te5,4.456917871194074
Al2 V1 Ir1,0.6589032884372646
Al2 W1,8.488351739360981
Al2 Zn1,4.125610221528406
Al2 Zn1 S4,2.717156408200313
Al2 Zn1 Se2 S2,3.406352502443508
Al2 Zn1 Se4,4.101047580833755
Al2 Zn1 Te4,4.705688467931012
Al2 Zn2 S5,3.1770012129718177
Al3 Ag1,4.6112324372586855
Al3 As1,3.6853986222098376
Al3 Au1,6.933301201630009
Al3 B1 N4,3.267975538097841
Al3 Cd1,4.328260596477741
Al3 Cr1,3.815305682119461
Al3 Cu1,3.9705585803335137
Al3 Cu2,4.630631527890153
Al3 Fe1,4.151306674196288
Al3 Ga1,3.7167553376674367
Al3 Ga1 N4,3.937986452360575
Al3 Ge1,3.715648585671171
Al3 Ge1 Pd4,8.026152996809866
Al3 H1,2.3179876952977247
Al3 Ir1,7.266572997560322
Al3 Ni2,4.767798907230983
Al3 Ni2 Pt1,8.3718783203596
Al3 Ni5,6.717313153937098
Al3 Os2,10.981229956906848
Al3 P1,2.858714855777335
Al3 Pd1,5.060168793949575
Al3 Pd2,5.997110471422851
Al3 Pt1,7.452115543021319
Al3 Pt2,9.60067115995248
Al3 Ru2,5.985448525409189
Al3 Si1 Pd4,7.600534887620268
Al3 Sn1,4.2388881578165725
Al3 Tc1,5.007580467273919
Al3 Tc2,5.464644799301861
Al3 Tl1,5.739296558237878
Al3 V1,3.676779817281535
Al3 W1 C4,6.164744876978809
Al3 Zn1,3.763161823458562
Al4 C1 O1,2.350230945981157
Al4 C3,2.930804106770353
Al4 Ge2 W3,9.722088584801764
Al4 Ni3 Pt1,7.84833092870337
Al4 Si1,2.8352485189889616
Al4 Si1 Pd1,3.742360153338143
Al5 Cu1 Mo2,5.519316024024231
Al5 Cu1 W2,7.959411154090757
Al6 Ge1 W1,5.442555996747445
Ar1,1.4735012557963914
As1,0.9619899658292644
As1 Au3,14.952546017377347
As1 I3,4.243515720191169
As1 N1 F6,3.031091025993628
As1 P1,3.811700291702115
As1 P1 Os1,10.11721438334779
As1 P1 Rh4,9.468423328811392
As1 P1 Ru1,7.141666143491955
As1 Pb3,10.043780622519115
As1 Pd2,9.898717520438188
As1 Pd4,10.562237728385528
As1 Pd6 Pb1,11.55492676336582
As1 Pt3,16.952378926008883
As1 Rh1,9.196489435765423
As1 Rh1 O4,6.394883628033193
As1 Rh2,9.775481970156644
As1 Ru1,9.409153356035254
As1 Se1 Br1,4.877394910658751
As2 Os1,10.78808764833354
As2 Pb1 O6,6.295913656727796
As2 Pd1 O6,5.869564293176505
As2 Ru1,8.051426795883398
As2 S1,4.941305124568991
As2 Se1,5.7470409429292495
As2 W1,10.6279047810263
As3 Pd4 Pb1,9.462475908721666
As3 W1,9.244492835377317
As4 C3,5.696588680355839
Au1,16.730993180447804
Au1 Br1,7.089623160076735
Au1 Br1 O2,5.476871494795151
Au1 Br2,5.0538949344254
Au1 Br3 N2,4.3461876945182
Au1 C1,9.954094866193968
Au1 C1 Cl1 O1,2.362820517001423
Au1 C1 N1,6.236492441303733
Au1 C2,4.240266569128748
Au1 Cl1,5.719088122615026
Au1 Cl1 O2,4.830624575200211
Au1 I1,6.757826281741869
Au1 I2,5.456740404003336
Au1 N1,11.3292425490154
Au1 N2,8.133820606952158
Au1 O2 F1,6.393328589412737
Au1 O2 F6,3.4467633726194453
Au1 S1,8.32725904758751
Au1 S2,5.518603388852944
Au1 Se1,8.223421519004054
Au2 S1,9.253936492736337
Au3 Br1,12.53995184875719
Au3 Cl1,13.65910233404898
Au3 N1,14.105062207153113
Au3 O1,14.254963033870544
Au3 S1,14.283076016506907
B1,1.8947631751498324
B1 As1,5.087631340714321
B1 As1 O4,3.4378097245326944
B1 Au1,10.933355715229084
B1 Au1 O3,9.934466602061132
B1 Au3,15.313582976830038
B1 Br3,2.3783031898137827
B1 C1,0.8817167968689347
B1 C2 N1,3.0639469543639484
B1 C5,3.256526950675964
B1 C7,3.3149905660656303
B1 Cl3,1.3986720863057134
B1 H6 N1,0.4757714560270345
B1 I3,3.1014613139434752
B1 Ir1,15.38477010210741
B1 Ir1 O3,10.460284216710496
B1 Mo1,8.475324270781801
B1 Mo1 C1,7.535410173791815
B1 Mo1 W1,12.990790074687958
B1 Mo1 W1 C1,11.916599910807264
B1 Mo2,9.106683076768183
B1 Mo2 C1,8.481290426631558
B1 N1,1.3764614522857497
B1 Os1,14.88461522725515
B1 Os1 O3,10.45298164634174
B1 Os3,18.56460295734492
B1 P1,2.9526018183160376
B1 P1 O4,2.6535315382148594
B1 P1 S4,1.6117612325409585
B1 Pb1 O3,9.741156187118827
B1 Pb3,9.75858065311388
B1 Pd1 O3,6.806833934712135
B1 Pd2,9.523490139432395
B1 Pd2 Br1,7.99211309473204
B1 Pd4,9.80420016098134
B1 Pd5,10.435381996644738
B1 Pt1,14.38971917085515
B1 Pt1 O3,10.291807458038486
B1 Pt2,16.98531080327785
B1 Pt3,16.195295221865806
B1 Rh1,8.828158977086561
B1 Ru1,7.649510798951646
B1 Ru3,10.46549358456595
B1 Sb1,5.974007196039766
B1 Sb1 O3,6.870745471143401
B1 Se2 Cl1,5.060293874997788
B1 Te1 O3,6.960377106887915
B1 Te2 As1,6.713955219597869
B1 W1,15.318276657145134
B1 W2,16.759719411890774
B2 As1 P1,4.128914812768751
B2 Au1,10.893524124301644
B2 C1 N1,3.111524574776568
B2 Ir1 Cl1,8.939078500536343
B2 Mo1,7.035996278697895
B2 Mo1 Ru1,8.88642699649935
B2 O1,2.1533364759270577
B2 Os1,12.647957738388936
B2 Pt3,15.748413437816392
B2 Ru1,7.467945844068766
B2 Ru1 W1,12.374671099200722
B2 W1,12.751833555707153
B3 Mo1,5.760905143492877
B4 Mo1 Ir1,9.694701446429267
B4 Mo1 Ru2,7.270011363395471
B4 Os1 W1,12.329524939697516
B5 Mo2,6.910597742884047
B5 W2,11.765117443529052
B6 Pb1,6.003819469509007
Ba1,2.364061517729881
Ba1 Ag1,5.466174327940019
Ba1 Ag1 As1,6.164474640473252
Ba1 Ag1 Bi1,7.242348579265253
Ba1 Ag1 O2,6.0410414255946
Ba1 Ag1 P1,5.7052838278433535
Ba1 Ag1 S1 F1,5.637314434554091
Ba1 Ag1 Sb1,6.104209274888849
Ba1 Ag1 Se1 F1,6.142612558392519
Ba1 Ag1 Te1 F1,6.298244067181046
Ba1 Ag2,6.332370916498132
Ba1 Ag2 Ge1 S4,4.70604412291684
Ba1 Ag2 Ge1 Se4,5.52152132974412
Ba1 Ag2 Ge2,6.967152760108303
Ba1 Ag2 S2,5.610697893916584
Ba1 Ag2 Sn1 S4,4.789230440868241
Ba1 Ag2 Sn1 Se4,5.555595827459082
Ba1 Ag2 Sn2,7.036637211603849
Ba1 Ag5,7.889923678275579
Ba1 Al1,3.667059047971118
Ba1 Al1 Co1 Cu1 O5,5.423099355990557
Ba1 Al1 Cr1 Cu1 O5,5.3831840741403765
Ba1 Al1 Cu1 Ag1 O5,5.570511677453126
Ba1 Al1 Cu1 Bi1 O5,6.5533301461109215
Ba1 Al1 Cu1 Mo1 O5,5.505091991966533
Ba1 Al1 Cu1 Ni1 O5,5.78394294035521
Ba1 Al1 Cu1 Sb1 O5,4.989938482850286
Ba1 Al1 Cu1 Sn1 O5,5.593986730427994
Ba1 Al1 Cu1 W1 O5,5.549771367064489
Ba1 Al1 Cu2 O5,5.785502505518243
Ba1 Al1 Cu3 Se4,4.670129309642913
Ba1 Al1 Fe1 Cu1 O5,5.325796829360474
Ba1 Al1 Ge1,4.545636711163821
Ba1 Al1 Ge1 F1,4.6641712282078345
Ba1 Al1 Ge1 H1,4.5252736413746
Ba1 Al1 O3,5.69066640911675
Ba1 Al1 Si1,3.806505581790664
Ba1 Al1 Si1 H1,3.7511077174063314
Ba1 Al1 Sn1,4.751913454208471
Ba1 Al1 V1 Cu1 O5,5.233225100667928
Ba1 Al2,4.079686509996566
Ba1 Al2 Ga2,4.741098749362965
Ba1 Al2 Ge2,4.638609225590395
Ba1 Al2 Si2,3.5802269751419886
Ba1 Al2 Te4,4.576343581371568
Ba1 Al4,3.425431948130945
Ba1 As1 Au1,7.95671176849071
Ba1 As1 Pd1,6.551416399237807
Ba1 As2 Pd1,6.75765291516659
Ba1 As2 Pd2,7.33179617765174