Composition,Density
Ce2 Fe1 Se2 O2,6.393907933642377
Ce2 Fe1 Si3,6.073795684313872
Ce2 Fe2 S2 O3,5.710270059488479
Ce2 Fe2 Se2 O3,6.41016914747665
Ce2 Fe2 Si2 C1,6.7736960561062896
Ce2 Fe3 Rh1,9.6039045607467
Ce2 Ga3 Cu1,7.245047186168884
Ce2 Ge3,6.819610654710705
Ce2 Ge3 Rh1,7.652315266202285
Ce2 Ge6 Au1,7.673315545038955
Ce2 Ge6 Pd1,7.173613449494945
Ce2 Ge6 Pt1,7.899787628498901
Ce2 Hg1 Pb1,9.48841295084453
Ce2 In1,7.52859747454237
Ce2 In1 Ag1,7.658710136529594
Ce2 In3 Cu1,7.601124264443416
Ce2 In3 Sn3,7.820004132925477
Ce2 Mg1,4.671638077377359
Ce2 Mg1 Al1,5.244352917799456
Ce2 Mg1 Cd1,6.061159930788439
Ce2 Mg1 In1,6.354577030680943
Ce2 Mg1 Pb1,7.296720736305064
Ce2 Mg1 Zn1,5.988270370366415
Ce2 Mg5 Au1,5.229869252526489
Ce2 Mn1 N3,7.687445708476535
Ce2 Mn1 N3 F1,6.908932723920349
Ce2 Mn1 Sb2 O1,5.764918641973329
Ce2 Mn1 Se2 O2,5.894461733937468
Ce2 Mn2 Se2 O3,6.073132192417697
Ce2 Mo2 C3,7.8789844609257695
Ce2 Ni1 Ge3,7.491939420112337
Ce2 Ni1 Ge6,7.031208766722011
Ce2 Ni1 Pt1,10.058242720613093
Ce2 Ni1 Ru3,10.22567776178687
Ce2 Ni1 Sn4,7.704029015051426
Ce2 Ni2 Sn1,8.333212418363017
Ce2 O3,3.511848093397864
Ce2 P2 Ru1 O1,6.258442341072045
Ce2 P3 Rh3,2.115949775675684
Ce2 Pd3 Rh3,10.73826399663567
Ce2 Pr1 O6,6.701303455799224
Ce2 Re2 Si2 C1,9.565360502572435
Ce2 S1 O2,6.2169806490647455
Ce2 Sb1,7.734447812755838
Ce2 Sb1 Au3,11.319563136361548
Ce2 Sb1 O2,7.033216414898109
Ce2 Sb1 Te1,6.842154922447218
Ce2 Sb3 Rh4,9.262181254749388
Ce2 Se1 F4,6.264536772719176
Ce2 Se1 N2,6.827883209651384
Ce2 Se1 O2,6.671062463012567
Ce2 Se1 S1,6.569220493061225
Ce2 Si1 Ge1,6.615346378607208
Ce2 Si2 H1 Ru1,6.599087618907458
Ce2 Si2 Ni1 Pt1,8.227630603448914
Ce2 Si3,5.350309804589661
Ce2 Si3 Ni1,6.096346937827697
Ce2 Si3 Pt3,10.006234767289827
Ce2 Si7,5.061814619260156
Ce2 Sn1 Hg1,8.681620497250849
Ce2 Te1 O2,6.960869476184987
Ce2 Te1 Se1,7.001587662316864
Ce2 Tl1 Ag1,8.85912649614803
Ce2 Tl3 Sn3,9.392783341829404
Ce2 Y1 Al3 Pd3,6.889713608429493
Ce2 Zn1 Bi4,9.320159317737613
Ce2 Zn1 Hg1,8.543442492577936
Ce2 Zn1 In1,7.348453689722978
Ce2 Zn1 Ni2,8.209507378789173
Ce2 Zn1 P2 O1,4.889394665640968
Ce2 Zn1 Pb1,8.269485314685769
Ce2 Zn1 Sb4,7.2612245719366015
Ce2 Zr1 O6,6.70001184763861
Ce3 Ag1,8.333880911418715
Ce3 Al1,7.18911141672323
Ce3 Al1 C1,6.346866213799777
Ce3 Al1 N1,6.640606296237999
Ce3 Al1 O1,6.840366415089138
Ce3 Au1,10.026380844691188
Ce3 B2 N4,7.165290663245058
Ce3 Br1,8.675119335383796
Ce3 Cd1,8.021429803169156
Ce3 Cl1,8.374541701540501
Ce3 Cr1,8.958741274269007
Ce3 Cu1,8.330701204740235
Ce3 Dy1,8.369790901670346
Ce3 Er1,8.499467973634827
Ce3 Eu1,8.326653528161891
Ce3 Ga1,8.078079141934191
Ce3 Ga1 Br3,5.522346353878239
Ce3 Gd1,8.450569795209702
Ce3 Ge1 S2,6.278660823712425
Ce3 Hf1,9.404564137567272
Ce3 Hg1,9.655570060266248
Ce3 Ho1,8.412537347549359
Ce3 I1,8.434637847599848
Ce3 In1,7.960743077425249
Ce3 In1 C1,4.562938059286391
Ce3 In3 Ru2,8.15654679183255
Ce3 Mg1,6.615548781827762
Ce3 Mg2 In1 Au3,8.855053511255447
Ce3 Mg2 Rh4,7.888695205917646
Ce3 Pb1,9.155427022382025
Ce3 Pb1 C1,4.95081763190947
Ce3 Pd5,9.21526758258674
Ce3 Pm1,8.311455677095934
Ce3 Sb1 As2,6.738464876318338
Ce3 Sc1,6.855457863179396
Ce3 Si1 S2,5.828880785017327
Ce3 Si3 Pt1,7.419518823024436
Ce3 Sm1,8.265269527356576
Ce3 Sn1,7.957721608807474
Ce3 Sn1 C1,4.586504783776145
Ce3 Sn1 N1,4.521554301822287
Ce3 Ti1,7.822761290573562
Ce3 Tl1,9.143027311093292
Ce3 Tl1 C1,5.248032005932487
Ce3 Tm1,8.155225407787213
Ce3 Y1,7.326271106559092
Ce3 Y1 Rh4,8.763393428861269
Ce3 Zn1,8.223996457353087
Ce4 Ge1 S3,6.267650176107913
Ce4 Ni3 Pt1,9.134595624146034
Ce4 Sm1,8.532078391065118
Ce5 Mg1,6.674634879280188
Cl1 F1,2.0909804552380304
Cl1 O1,2.892216847398928
Cl1 O3,1.7404778516596824
Cl2,1.6344098612381623
Co1,8.442733521518138
Co1 Ag1 F3,4.411440354630911
Co1 Ag1 N1,6.373277197177612
Co1 Ag1 O2,5.599000667794014
Co1 As1,8.04041229237126
Co1 As1 Pd1,9.08522419715166
Co1 As1 S1,6.063048426227946
Co1 As1 Se1,7.094224476122719
Co1 As2,7.346451599417871
Co1 Au1 O2,10.49600860852074
Co1 Au1 O3,9.203867949631238
Co1 Au3,16.55506392571604
Co1 Au4,16.48613714694845
Co1 B1,7.456589548939882
Co1 B1 O3,5.178507210504986
Co1 B2 Mo2,8.759424905111537
Co1 B2 W2,14.323754974895367
Co1 Bi1 Te1,9.716870768047713
Co1 Bi2 O6,7.778981913543335
Co1 Br1,4.832674875779708
Co1 Br2,4.346426649084729
Co1 C1 N1,5.739707632934421
Co1 C1 N2,4.101985500757625
Co1 C4 O4,1.4815621207079883
Co1 Cl2,1.2056587508952978
Co1 Cl2 O2,2.76362239783795
Co1 Cl2 O6,2.3526901324743297
Co1 Cl6,0.1607525783731484
Co1 Cu1 O2,6.3567913549848605
Co1 Cu2 Ge1 S4,4.377156522302147
Co1 Cu2 Ge1 Se4,5.449067050122716
Co1 Cu2 O3,6.643753541012945
Co1 Cu2 O6,3.53781062681279
Co1 Cu2 Si1 S4,4.012250089059425
Co1 Cu2 Sn1,9.08992206342242
Co1 Cu2 Sn1 S4,4.5804007711558725
Co1 Cu2 Sn1 Se4,5.53495195445425
Co1 Cu3 Hg1 Se4,6.324002600374512
Co1 F2,4.438895528685817
Co1 F3,3.376079330607183
Co1 Ge1,6.771962850997993
Co1 Ge1 As2,5.555843797713114
Co1 Ge1 N2,6.980088363950449
Co1 H1,7.837470087040278
Co1 H1 O2,4.20674361677193
Co1 H2 O2,3.4186713808643883
Co1 H3,5.777657780423185
Co1 H4 Br2 O2,3.245942421194125
Co1 H4 Cl2 O2,2.424990703794188
Co1 H6 Cl2,1.69010341389204
Co1 Hg1 S4,4.882246934775927
Co1 Hg3,13.910699949681536
Co1 I2,5.798238637201006
Co1 I2 N6,5.498769657213111
Co1 I2 O6,5.582320707527053
Co1 Ir1,16.408562548659948
Co1 Mo1,9.52736437740474
Co1 Mo1 O3,5.328963454597332
Co1 Mo1 P2,6.731972653531332
Co1 Mo2 S4,5.875659806679103
Co1 Mo3,9.889247763989324
Co1 N1,4.479800864877714
Co1 N1 F3,4.033640634730144
Co1 N6 Cl2,2.9824670142417298
Co1 Ni1,8.876882909537516
Co1 Ni1 As1,8.75454034887514
Co1 Ni1 As2,7.858464274520028
Co1 Ni1 As4,7.135045775919116
Co1 Ni1 Ge1,8.999248230182008
Co1 Ni1 N1,6.772118200549786
Co1 Ni1 O2,6.476261952015926
Co1 Ni1 P1,7.627529253944671
Co1 Ni1 Pt2,15.158774132097
Co1 Ni1 Sb1,8.6457314460188
Co1 Ni1 Se2,7.64874475812905
Co1 Ni1 Sn1,9.439958397603052
Co1 Ni1 Te2,8.6561372589003
Co1 Ni1 Te4,7.481794695298517
Co1 Ni2 N2,7.498610535118452
Co1 Ni2 S4,4.902538956164101
Co1 Ni2 Se4,7.038305832432868
Co1 Ni3,8.892269413532528
Co1 O1,5.097638246475344
Co1 O1 F1,4.747912550641833
Co1 O2,0.6541031211063899
Co1 Os1,16.264150208390014
Co1 P1,6.483185869590008
Co1 P1 Pd1,8.521145154503257
Co1 P2 W1,9.5212019295007
Co1 Pb3,10.154828458240738
Co1 Pd1,10.189907488813713
Co1 Pd1 O2,7.746726781202713
Co1 Pd2 N2,8.756549931556785
Co1 Pd3,10.765001784652332
Co1 Pt1,15.42386025778918
Co1 Pt1 F6,5.70161723393728
Co1 Pt1 N2,11.432581503533465
Co1 Pt3,18.03873667248255
Co1 Re1,15.722575524471504
Co1 Re1 Ge2,11.224149954840088
Co1 Re1 N2,11.66427180184608
Co1 Re1 O4,8.47515822612837
Co1 Re3,18.4691377014417
Co1 Rh1,10.321734317534508
Co1 Rh1 O3,5.902010642739138
Co1 Rh2 O6,2.4535781245432324
Co1 Rh2 Se4,7.647836586448419
Co1 Rh3,11.426275096786735
Co1 Ru1,10.65892659837301
Co1 S1,4.420718991746983
Co1 S1 I1,5.579018878775815
Co1 S2,3.2258536550743764
Co1 Sb1,8.868028713497768
Co1 Sb1 O3,7.116842923310956
Co1 Sb1 O4,5.715069052024481
Co1 Sb1 Rh2,10.772057317697492
Co1 Sb1 S1,6.8369563580914665
Co1 Sb1 Se1,7.570003592443337
Co1 Sb1 Te1,8.05186047034843
Co1 Sb2,8.180590537294721
Co1 Se1,5.991890344933763
Co1 Se2,6.9365823800901465
Co1 Si1,6.633920594525826
Co1 Si1 N2,4.944198727023426
Co1 Si2,4.9644635645178745
Co1 Si2 Se4,5.312151930375346
Co1 Si4 Ni1,4.870329908812035
Co1 Si4 Ni3,6.0155242918319
Co1 Sn1,8.557223352459836
Co1 Sn1 F6,4.211742481988147
Co1 Sn1 N1,6.720858583084533
Co1 Sn1 O3,7.146859736015265
Co1 Sn1 Rh2,10.651285801061274
Co1 Sn2,8.839862794451069
Co1 Tc1,10.3038319036049
Co1 Tc3,10.874913051449242
Co1 Te1,8.82596523302224
Co1 Te1 Mo1,8.500930927646722
Co1 Te1 O3,7.214198003818167
Co1 Te1 Pb2 O4,7.772597442449725
Co1 Te1 Se1,7.103496525897405
Co1 Te2,7.559601913713964
Co1 W1,14.853115276756537
Co1 W3,16.992379182196967
Co2 As1,8.734027607821071
Co2 B1,8.184708965211051
Co2 B4 Mo1,7.367120828323568
Co2 C1,7.854354164890664
Co2 Cu1 Ge1,0.7523030913506398
Co2 Cu1 N2,6.489948695782525
Co2 Ge1,9.080653263426091
Co2 Mo1 S4,4.326122539913492
Co2 N1,7.9193453164124925
Co2 Ni1 N2,6.852769402823859
Co2 Ni1 Se4,7.06410460401085
Co2 P1,7.661609400756136
Co2 Pb1 N2,8.985656064523504
Co2 Pd1,9.77963711555381
Co2 Sb1 As1,8.468887181838497
Co2 Sb1 Te1,8.830196702037929
Co2 Si1 Ge1,7.776408646832902
Co2 Sn1,9.495012657133586
Co3 Bi1,11.411411818916328
Co3 Cl1,7.004644167761582
Co3 Cu1,8.964556249616201
Co3 Ge2,8.207523748604169
Co3 H1,7.749704415247215
Co3 I1,7.363976243320794
Co3 Ir1,12.62467309486532
Co3 Mo1,9.1828456773591
Co3 N1,8.159504384942773
Co3 Ni1,8.867242575394725
Co3 Os1,13.37001756933467
Co3 Pt1,12.370123529986682
Co3 Re1 B4,9.961913143465894
Co3 Rh1,9.672353621208922
Co3 Ru1,10.004778774012337
Co3 S1,7.684714069798743
Co3 Se1,9.360730971000793
Co3 Se4,7.217480510623892
Co3 Si1,7.985827454991447
Co3 Sn1,9.290664745054078
Co3 Sn1 C1,8.968624197208445
Co3 Sn2,8.790320834885417
Co3 Sn2 S2,7.188151828675009
Co3 Te1,9.803215866903717
Co3 W1,12.809330663582884
Co4 Ge1,7.359326917193376
Co4 H1,8.675532989860216
Co4 N1,8.025424260994715
Co4 Os1,11.889547769415376
Co4 Re1,11.635140424742282
Co4 Ru1,9.528075721957192
Co4 W1,11.311456958115524
Co5 Sn2 As2,8.154703325052328
Co5 Sn2 Sb2,8.731243531765767
Cr1,7.223948217395726
Cr1 Ag1 O2,6.280759154196889
Cr1 Ag1 S2,5.029493241696318
Cr1 Ag1 Se2,6.112507722749183
Cr1 Ag1 Te2,6.483890421398398
Cr1 Ag3,8.81530671876435
Cr1 As1,6.508013248385811
Cr1 As1 Pd1,8.160456272573414
Cr1 As1 Rh1,8.35914955655678
Cr1 As2,7.231771172980101
Cr1 Au1,12.486964826608205
Cr1 Au1 O2,9.21599380422164
Cr1 Au1 S2,6.647310194470495
Cr1 Au4,15.917151208458186
Cr1 B1,6.225689217418206
Cr1 B1 N2,3.727400794379799
Cr1 B1 W1,12.255448167690492
Cr1 B2,5.316402027319826
Cr1 B2 Mo1,7.422993973315626
Cr1 B2 Ru1,7.89204445719753
Cr1 B2 W1,11.201364719437448
Cr1 B4,4.253212703060286
Cr1 B4 Mo1,6.395054351960978
Cr1 Bi1,8.553683581878337
Cr1 Bi1 N2,7.092874404581224
Cr1 Br1 O1,4.183165068558561
Cr1 Br2,3.966491849639077
Cr1 Br3,3.9426479797871865
Cr1 C1,6.132123817300513
Cr1 C1 N2,3.5493494867679822
Cr1 Cd1 Cu3 Se4,5.569858785876935
Cr1 Cd1 F6,3.9684887915252496
Cr1 Cd1 Te2,5.2338190520093
Cr1 Cd3 Te4,5.345760890504391
Cr1 Cl1,2.863116761128369
Cr1 Cl1 O1,3.155400048265504
Cr1 Cl2,2.738201948906607
Cr1 Cl3,2.461543955671448
Cr1 Co1,7.947124531735106
Cr1 Co1 As1,7.941599517250176
Cr1 Co1 B1,7.415431075790152
Cr1 Co1 Ge1,8.20250652110751
Cr1 Co1 N2,7.105303685040908
Cr1 Co1 Pt2,15.147594929853463
Cr1 Co1 Si2,5.9638846935469365
Cr1 Co1 Te1,7.785227764294709
Cr1 Co2 As1,8.391053381201056
Cr1 Co2 Bi1,10.710019662345475
Cr1 Co2 Ge1,8.510535723158329
Cr1 Co2 O6,4.362174680499507
Cr1 Co2 Sb1,8.923198640813354
Cr1 Co2 Si1,7.346076125461993
Cr1 Co3,8.74371863970201
Cr1 Cu1 B1,6.415258164244951
Cr1 Cu1 O2,5.295622232369865
Cr1 Cu1 O3,5.3666026694627424
Cr1 Cu1 S2,3.969820155878784
Cr1 Cu1 Se2,5.833854647732213
Cr1 Cu2 Si1,6.819902116702416
Cr1 Cu3 Hg1 Se4,6.180090550000619
Cr1 Cu3 Pb1 Se4,5.843012910147864
Cr1 Cu4 Ni1 Sn2,8.567564035427434
Cr1 F2,3.61146483082789
Cr1 F3,2.0732720755497795
Cr1 F5,2.563751383619818
Cr1 F6,2.389082423106877
Cr1 Fe1,7.847322162324531
Cr1 Fe1 As1,7.746980610385992
Cr1 Fe1 As2,7.408423230052893
Cr1 Fe1 As4,6.892428556427115
Cr1 Fe1 B2,6.480433280930656
Cr1 Fe1 Co1 Ni1,8.471721924582232
Cr1 Fe1 Co1 Si1,7.347182990182191
Cr1 Fe1 Ge2,7.968095761293356
Cr1 Fe1 N2,6.839357878522299
Cr1 Fe1 P2,5.9099233931257045
Cr1 Fe1 S2,5.719028985892916
Cr1 Fe1 Sb4,7.703838759939336
Cr1 Fe1 Si2,5.87946547766004
Cr1 Fe1 Te1,7.756716457396785
Cr1 Fe2 Sb1,8.992261992634083
Cr1 Fe2 Se4,5.444820938700997
Cr1 Fe2 Si1,7.28977948534391
Cr1 Fe2 Sn1,8.659658074883348
Cr1 Fe2 Te4,6.757534544289746
Cr1 Fe3,7.981657005353568
Cr1 Fe3 As2,7.534180684546898
Cr1 Fe3 As4,7.678622673141639
Cr1 Fe3 B2,7.375771903987954
Cr1 Fe3 N1,7.015640584768632
Cr1 Fe3 Sb4,8.179009341571096
Cr1 Fe4,7.987035541460435
Cr1 Ga1 Co2,8.478266107383357
Cr1 Ga1 Fe1 Se4,5.018798959933405
Cr1 Ga1 Fe2,7.839279483822084
Cr1 Ga1 Ir2,1.2685083694746264
Cr1 Ga1 O4,5.046067542214551
Cr1 Ga1 P2,3.7425289883301742
Cr1 Ga1 Rh2,0.8040909927311798
Cr1 Ga1 Ru2,0.8813198456893104
Cr1 Ga1 Tc2,0.7564657603923213
Cr1 Ga1 Te1,5.46621606765699
Cr1 Ga2 S4,3.703589877349098
Cr1 Ga3 P4,3.861710221359039
Cr1 Ga4,6.018902353877146
Cr1 Ge1,7.639572970045499
Cr1 Ge1 O3,5.465313354129075
Cr1 Ge1 Rh1,7.681429408612081
Cr1 Ge1 Ru2,0.8429028475821925
Cr1 H1,5.936731882174295
Cr1 H1 O2,4.293478496928693
Cr1 H2,5.181642764892287
Cr1 H3,4.3281518075185
Cr1 Hg1 F6,5.183748417046818
Cr1 Hg3,12.410107858552896
Cr1 I2,4.361270116912747
Cr1 In1 Co2,8.848960815969404
Cr1 In1 Cu2,8.13499698391335
Cr1 In1 Ni2,8.45130255666223
Cr1 In3,7.347439369835605
Cr1 Ir1,15.376793145521496
Cr1 Ir1 O4,7.934520329123671
Cr1 Ir1 Ru1,11.496310040718308
Cr1 Ir3,18.64843893661112
Cr1 Mo1,8.786506534983348
Cr1 Mo1 As2,7.725809177620798
Cr1 Mo1 F6,3.30396254251174
Cr1 Mo1 O3,5.39333395535818
Cr1 Mo1 O4,5.245990430181556
Cr1 Mo1 W2,1.0911365451259376
Cr1 Mo2 N3,8.041048722475953
Cr1 Mo3,9.226047679982164
Cr1 N1,5.146222344134499
Cr1 N2,2.0930940657135544
Cr1 Ni1,7.586522277912522
Cr1 Ni1 As1,7.617337431373272
Cr1 Ni1 F6,3.668444880705344
Cr1 Ni1 N2,6.962642392504889
Cr1 Ni1 P1,6.859231774613528
Cr1 Ni1 Sb1,7.509964466257091
Cr1 Ni1 Sb2,7.692297656402506
Cr1 Ni2,7.715950578168454
Cr1 Ni2 Hg1,10.713280307786086
Cr1 Ni3,8.461054900233115
Cr1 Ni3 Sb4,8.131818804046372
Cr1 O1,4.436264453338223
Cr1 O2,2.6489992378374176
Cr1 O3,2.398040168081206
Cr1 O3 F3,2.21108127075146
Cr1 P1,5.66987378355776
Cr1 P1 Pd1,7.335962113428007
Cr1 P2,4.976638917143942
Cr1 P2 W1,9.19184668554375
Cr1 Pb1 N2,7.44427567441411
Cr1 Pb1 O3,8.487554511181017
Cr1 Pb2,9.6636836143799
Cr1 Pd1,9.662156011264068
Cr1 Pd3,10.270414317005628
Cr1 Pt1,14.856271843176795
Cr1 Pt3,17.544105082223165
Cr1 Pt4,18.385272160372644
Cr1 Re1 W2,1.1703157965811617
Cr1 Re3,17.581629471017795
Cr1 Re3 B4,13.799422607276096
Cr1 Re5 B2,17.038555677266647
Cr1 Rh1,9.85237519211128
Cr1 Rh1 O3,5.606497365687114
Cr1 Rh2 Se4,7.043865209972528
Cr1 Rh3,10.845462701324394
Cr1 Ru1,9.806257087092764
Cr1 S1,4.893697272358381
Cr1 S1 Br1,3.686663605536125
Cr1 S2,1.8981005826573705
Cr1 Sb1,7.008554255803608
Cr1 Sb1 O4,4.983816751770391
Cr1 Sb2,6.898917738999247
Cr1 Sb2 O6,5.720973883550321
Cr1 Se1,5.520958475432138
Cr1 Se2,2.8707087230694768
Cr1 Si1,5.466414955589688
Cr1 Si1 Os2,1.1710015858021028
Cr1 Si1 Ru2,8.980895278864484
Cr1 Si1 Tc2,0.6346116881673789
Cr1 Si2,5.015722573893226
Cr1 Si2 Tc1,0.5118326392142047
Cr1 Sn1 Rh2,0.832402239211797
Cr1 Sn1 Ru2,0.8086461177119113
Cr1 Tc1 Ge2,0.6801302297341725
Cr1 Tc1 O3,5.5741214308376446
Cr1 Tc2 Ge1,0.7384071714631721
Cr1 Te1,4.901040079470191
Cr1 Te1 N1,6.052795172479249
Cr1 Te2,6.4537860248218255
Cr1 Te4 Au1,7.34343263548229
Cr1 Te4 Rh2,7.87303396440328
Cr1 W1,13.855681690427156
Cr1 W1 N2,11.630281603117108
Cr1 W1 O3,4.161361585819264
Cr1 W1 O4,7.356381671247585
Cr1 W1 O6,5.021193719080995
Cr1 W2 N3,12.940379151622968
Cr2 Ag1 S4,4.289416699923788
Cr2 As1,6.876388791768678
Cr2 As1 Se1,5.591529681788527
Cr2 B1,6.742147781173523
Cr2 C1,6.506984792202324
Cr2 Co1,7.743869858964362
Cr2 Co1 Se3 S1,5.773159118456773
Cr2 Co1 Se4,5.713042571290536
Cr2 Co1 Te4,7.042863038494403
Cr2 Cu1 Ag1 S4,4.780411606556005
Cr2 Cu1 S4,4.599235525828703
Cr2 Fe1,7.434562785223406
Cr2 Fe1 S4,4.895910488689203
Cr2 Fe1 Se1 S3,5.092554397155711
Cr2 Fe1 Se3 S1,5.896389104656953
Cr2 Fe1 Se4,5.904215644216482
Cr2 Fe1 Te4,6.794115409772797
Cr2 Ga1 C1,6.887637825443649
Cr2 Ga1 N1,6.818051388298378
Cr2 Ge1 C1,6.9551607784929725
Cr2 H1 O4,3.952928891524817
Cr2 Hg1 S4,4.875783033555092
Cr2 Ir2 C1,14.395802056793254
Cr2 Ir2 O5,9.125995839504297
Cr2 N1,6.723825369413457
Cr2 Ni1,7.645005615459485
Cr2 Ni1 S4,4.883169724819354
Cr2 Ni1 Se4,6.227119155361774
Cr2 O1,4.242976719763524
Cr2 Pt2 C1,7.376427820541128
Cr2 Re1 Mo1,0.8402602299401958
Cr2 Re1 W1,1.3332416609097273
Cr2 Rh2 C1,9.244728402046803
Cr2 S1 N2,4.828386002926299
Cr2 S2 Br1 Cl1,3.460599005399582
Cr2 Sb1 As1,6.754665550281091
Cr2 Sb1 Te1,6.191132790538201
Cr2 Se1 N2,5.831621666037206
Cr2 Se1 S1,5.089237927522748
Cr2 Si1 C1,5.613571295499344
Cr2 Te1 Se1,5.987163310245324
Cr3 As1,7.778207077644168
Cr3 B4,5.905973490618464
Cr3 Cd1 Te4,5.0376161290739
Cr3 Co1,7.812967261862825
Cr3 Cu1,7.800995307024015
Cr3 Fe1,7.575642141217513
Cr3 Fe1 As4,7.232795314109622
Cr3 Fe3 Ge1 As2,7.683479824070375
Cr3 Fe3 Si1 As2,7.334399755543746
Cr3 Ga1,7.715087658896778
Cr3 Ga1 Fe3 As2,7.567410292299233
Cr3 Ga1 N1,7.089651899013552
Cr3 Ga1 P4,3.6037915598329415
Cr3 Ge1,7.860403851200858
Cr3 H1,6.424869130177965
Cr3 Ir1,11.502620729111474
Cr3 Ir1 N1,10.814731857432466
Cr3 Mo1,8.16511989321501
Cr3 Mo2 C4,7.361807623115781
Cr3 N2,3.5312964193099106
Cr3 N4,5.654537049243683
Cr3 Ni1,7.462201545998606
Cr3 Ni1 P4,5.753868802120451
Cr3 Ni1 Sb4,7.276044736814401
Cr3 O1,4.020374453836333
Cr3 O5,3.581031702848684
Cr3 Os1,11.448966502877054
Cr3 Pd1 N1,8.106619033183105
Cr3 Pt1,11.35395831319546
Cr3 Pt1 N1,10.702691233376289
Cr3 Rh1,8.61954536112071
Cr3 Rh1 N1,8.133303417155991
Cr3 Ru1,8.586720287673844
Cr3 Ru3 C2,9.0749728502937
Cr3 S4,3.954732510828952
Cr3 Se1,7.849020040908926
Cr3 Se4,5.577899781876997
Cr3 Si1,6.625100709326577
Cr3 Si2 Mo3,7.780558047087341
Cr3 Sn1 N1,7.856785298277307
Cr3 Te2 Se2,5.928014986603473
Cr3 Te4,6.226883200637462
Cr3 Te5,6.453120007440156
Cr4 Ni1,7.763533970665103
Cr4 S3 N2,4.740115185331274
Cr4 Te3 S1,5.940565158667014
Cr4 Te3 Se1,6.230948246284137
Cr5 Ni1 As3,7.070652636834878
Cs1,1.7924774413130244
Cs1 Ag1 Br2,4.423022003906959
Cs1 Ag1 Br3,4.806819244203732
Cs1 Ag1 C2,3.4463953576592457
Cs1 Ag1 Cl2,3.9222483110410384
Cs1 Ag1 O2,4.423020961696699
Cs1 Al1,2.445827411626497
Cs1 Al1 O2,4.611662253021529
Cs1 As1 F6,3.595811900625062
Cs1 As1 O3,6.275110295414904
Cs1 As2 Ir2,8.933771643247715
Cs1 As2 Rh2,6.55527681338504
Cs1 As2 Ru2,6.427421337328981
Cs1 Au1,6.514133851114585
Cs1 Au1 Br3,5.770853651388424
Cs1 Au1 C2,4.688143343345789
Cs1 Au1 Cl3,5.131504297973442
Cs1 Au1 F3,6.741008665591425
Cs1 Au1 O2,5.776614091994404
Cs1 Au1 O3,7.94746075648926
Cs1 Au1 S1,5.551702613338725
Cs1 Au1 Se1,5.8179903127011
Cs1 Au3 S2,6.511687750087916
Cs1 Au3 Se2,7.03677163935129
Cs1 B1,2.8808149818867275
Cs1 B1 H4,2.3720068642921075
Cs1 B1 O6,3.206718570708001
Cs1 B1 Pb1 I2 F4,4.29204655446947
Cs1 B1 S2,2.556147062477933
Cs1 Ba1 O3,4.150264786101324
Cs1 Ba3,3.140947822670828
Cs1 Be1 F3,5.026563847397926
Cs1 Be2 B1 O3 F2,3.206890124637311
Cs1 Bi1 F6,4.500705450284495
Cs1 Bi1 O2,5.956370610058792
Cs1 Bi1 O3,7.50991693049256
Cs1 Bi1 Se2,5.445776370331282
Cs1 Bi2,7.67510050786691
Cs1 Br1,3.485262633068681
Cs1 Br1 F1,3.946502317208672
Cs1 Br1 F6,3.529830591256923
Cs1 Br1 O3,3.944049284522915
Cs1 Br2 F1,3.639105174752634
Cs1 C1 N1,2.71480935816554
Cs1 C1 N1 O1,3.2215494029472325
Cs1 C8,2.893417415694679
Cs1 Ca1 Br3,3.5625632167978174
Cs1 Ca1 Cl3,2.836287024959466
Cs1 Ca1 F3,3.970085136030032
Cs1 Ca1 H3,2.961551996439553
Cs1 Ca1 I3,3.795831241609599
Cs1 Ca1 O3,3.568680556996517
Cs1 Ca3,2.0484769996211623
Cs1 Cd1 Br3,4.5295766404512205
Cs1 Cd1 Cl3,3.8569867525561903
Cs1 Cd1 F3,5.28437943950953
Cs1 Cd1 O3,5.201431676083625
Cs1 Cd4 As3,5.754226732352926
Cs1 Ce1,5.006523260073462
Cs1 Ce1 S2,4.376673742227584
Cs1 Cl1,3.1751064474369297
Cs1 Cl1 O2,3.350723326782109
Cs1 Cl1 O3,3.293642814638612
Cs1 Cl1 O4,2.898054901103929
Cs1 Co1 Cu1 S2,4.83017883025681
Cs1 Co1 O2,4.820926991695254
Cs1 Co2 As2,6.040791564924481
Cs1 Co2 S2,5.18924030092264
Cs1 Co2 Se2,6.012253746235336
Cs1 Cr1 C6,3.080906800942859
Cs1 Cr1 I2,3.742365100374101
Cs1 Cr2 S4,3.5770528056361144
Cs1 Cu1 C2,3.2566752311877023
Cs1 Cu1 N1,3.739488822712841
Cs1 Cu1 O1,4.435068561903492
Cs1 Cu1 O2,4.202481962090854
Cs1 Cu3 Ge1 Se4,4.5551785129919695
Cs1 Cu3 O2,4.5190962194540125
Cs1 Cu3 S2,3.866354154167128
Cs1 Cu4 S3,5.256659259685386
Cs1 Cu4 Se3,6.05325682936501
Cs1 Dy1 O2,7.198142225691579
Cs1 Dy1 S2,5.070148222503485
Cs1 Er1 O2,7.505893373913949
Cs1 Er1 S2,5.244774242289836
Cs1 Eu1,3.4219683367933813
Cs1 Eu1 Cl3,3.5398256097038847
Cs1 Eu1 F3,5.00873677493991
Cs1 Eu1 O3,5.669343712101113