Composition,Density
Cs1 Eu1 S2,4.587704992780637
Cs1 Eu3,4.508488014979896
Cs1 F1,4.406028855159094
Cs1 Fe1 Cu1 S2,4.706376242941628
Cs1 Fe1 F3,5.090590905712118
Cs1 Fe1 O2,4.517950199894605
Cs1 Fe1 S2,3.631889714940572
Cs1 Fe2 As2,5.880311017592191
Cs1 Fe2 P2,4.83392643504309
Cs1 Fe2 Sb2,6.302887245986857
Cs1 Fe4 As3,6.338256790842048
Cs1 Ga1 O2,5.059879259000099
Cs1 Ga1 S2,3.343295886718485
Cs1 Gd1,4.756097899172992
Cs1 Gd1 O2,6.849036884424815
Cs1 Gd1 O3,5.97903494369514
Cs1 Gd1 S2,4.869670837820851
Cs1 Ge1,4.031202045248548
Cs1 Ge1 Br3,3.856061589736092
Cs1 Ge1 Cl3,3.0822353931951283
Cs1 Ge1 I3,4.157331105019944
Cs1 Ge1 O3,6.269941171455406
Cs1 H1,3.3219351991276365
Cs1 H1 F2,3.4576115385762174
Cs1 H1 O1,4.03721037696732
Cs1 H1 S1 O3,3.3949367843999223
Cs1 H3,3.2856043053726403
Cs1 H3 O2,3.493108239591268
Cs1 Hf1 Cu3 Se4,5.127696076884005
Cs1 Hf1 Mg6,3.3898978126966988
Cs1 Hg1,5.312523710125877
Cs1 Hg1 Br1 Cl2,4.837331264958629
Cs1 Hg1 Br2 Cl1,5.0001333650165645
Cs1 Hg1 Br3,5.153218960924288
Cs1 Hg1 Cl3,4.631304596224877
Cs1 Hg1 F3,6.345337230084449
Cs1 Hg2,7.158859401908476
Cs1 Hg3,7.730089655937429
Cs1 Ho1,5.3108657321968495
Cs1 Ho1 O2,7.321607149439928
Cs1 Ho1 S2,5.160259782773877
Cs1 Ho3,7.0034138162195205
Cs1 I1,3.5295926186908213
Cs1 I1 Cl2,3.536236864484417
Cs1 I1 O3,5.284414556998509
Cs1 In1 Br3,4.204397370159399
Cs1 In1 F3,4.954480504673031
Cs1 In1 I3,4.41840454034159
Cs1 In1 O2,6.598868928575688
Cs1 Ir1,9.509942544919648
Cs1 Ir1 O3,9.031453833916114
Cs1 K1,1.5388624628247156
Cs1 K1 Au2,0.600040413327613
Cs1 K1 I1 Cl1,2.9679997426572577
Cs1 K1 Mg6,1.8551101345452448
Cs1 K1 Na2,0.1423596132591532
Cs1 K1 O3,4.027296458972959
Cs1 K1 Rb2,1.5426789945505686
Cs1 K2 As1,0.1759823472653789
Cs1 K2 Bi1,3.9328237717168975
Cs1 K2 Pt1,3.9412447184144295
Cs1 K2 Rb1,1.4112083336775036
Cs1 K2 Sb1,3.290420830586038
Cs1 K3,1.2385465475736732
Cs1 La1,4.572522151523603
Cs1 La1 Mg6,2.6588836250581687
Cs1 La1 O2,5.839441473757836
Cs1 La1 O3,4.907430595888201
Cs1 La1 S2,4.234694136314618
Cs1 La1 W2,10.492388894987672
Cs1 La3,5.507006750379326
Cs1 Li1 Br2,3.5902532265331963
Cs1 Li1 Cl2,2.9641356112835022
Cs1 Li1 I1 Cl1,3.079568077018941
Cs1 Li1 Mn1 S2,3.50941290450225
Cs1 Li1 Mo1 O4,3.1537815348257188
Cs1 Li1 N2,3.011757570552028
Cs1 Li1 W1 O4,4.060355503808687
Cs1 Li1 Zn1 S2,3.752316748058588
Cs1 Li2 Br3,3.538436878759062
Cs1 Li2 C1,3.458047721988586
Cs1 Li2 Cl3,2.76522310409368
Cs1 Li2 F3,3.998359255433145
Cs1 Li2 I3,3.723222252509655
Cs1 Lu1 S2,5.469055679443211
Cs1 Mg1 F3,4.626006179218942
Cs1 Mg1 O3,4.308676645275569
Cs1 Mg3,2.203339909102662
Cs1 Mg6 Al1,1.8324169796603904
Cs1 Mg6 B1,2.061361146869037
Cs1 Mg6 Bi1,3.4145521064221813
Cs1 Mg6 C1,2.344946081549484
Cs1 Mg6 Co1,2.400777306328177
Cs1 Mg6 Cu1,2.6357349575126903
Cs1 Mg6 Fe1,2.0539893392820785
Cs1 Mg6 Ga1,2.107813639226671
Cs1 Mg6 Mn1,2.515169867950196
Cs1 Mg6 Mo1,3.002490274418949
Cs1 Mg6 Nb1,2.8817920728844832
Cs1 Mg6 Sb1,2.630382813739735
Cs1 Mg6 Si1,1.8645605046296847
Cs1 Mg6 Ti1,2.469831445222098
Cs1 Mg6 V1,2.5386213474871
Cs1 Mg6 W1,3.8246444450811774
Cs1 Mg6 Zn1,1.9974290494661573
Cs1 Mn1 As1,3.959072432964714
Cs1 Mn1 Bi1,5.836595830604516
Cs1 Mn1 Cu3 Se4,4.713711860660425
Cs1 Mn1 P1,4.139995287071977
Cs1 Mn1 Sb1,4.752181644404536
Cs1 Mn1 Se2,4.613378799103945
Cs1 Mn1 Te2,4.821190774648329
Cs1 Mn2 P2,4.680819905278737
Cs1 Mo1 C6,3.09616183594333
Cs1 Mo1 O3,6.511217942104932
Cs1 N1,4.227266089856429
Cs1 N3,3.007834273768517
Cs1 Na1 F3,3.6847603652083607
Cs1 Na1 I1 Cl1,3.067964729572193
Cs1 Na1 Mg6,2.084087187116488
Cs1 Na1 O3,3.846421940332156
Cs1 Na1 S1,3.336635096594845
Cs1 Na1 Se1,3.733575515092975
Cs1 Na1 Te1,3.775756057343144
Cs1 Na2 Bi1,0.3007808962578732
Cs1 Na2 Sb1,0.2351187529021887
Cs1 Na3,1.5827367371963954
Cs1 Nb1 C6,2.784894003491838
Cs1 Nb1 F6,3.540660311118748
Cs1 Nb1 N2,4.62197832045347
Cs1 Nb1 O3,6.266184612052443
Cs1 Nb2 S4,4.143060835869009
Cs1 Nd1,4.5138496036683975
Cs1 Nd1 O2,6.220810130853464
Cs1 Nd1 O3,5.142459551389267
Cs1 Nd1 S2,4.464609398036035
Cs1 Nd1 Te2,5.1981359405691965
Cs1 Nd3,5.861103074666329
Cs1 Ni1 N1,3.730619954409849
Cs1 Ni1 O2,4.800968060800595
Cs1 Ni1 P1,3.421762009995206
Cs1 O2,3.3754011934274315
Cs1 Os1 O3,9.241140426525902
Cs1 P1 F6,3.204677713349381
Cs1 P2 Ir2,8.36595237542491
Cs1 P2 Rh2,5.827049595070447
Cs1 P2 Ru2,5.662314690439113
Cs1 Pb1 Br3,4.419040946876881
Cs1 Pb1 Cl3,3.932603722853772
Cs1 Pb1 F3,5.596298708277052
Cs1 Pb1 I3,4.535852458397697
Cs1 Pb1 O3,7.164664583017451
Cs1 Pb2 Cl5,3.312782995066003
Cs1 Pb3,7.336620004931854
Cs1 Pd1 Br3,5.23748143561601
Cs1 Pd1 Cl3,4.422293067537942
Cs1 Pd1 F3,5.720528093564077
Cs1 Pd1 O3,6.4411604741401
Cs1 Pm1,4.582552869432165
Cs1 Pr1 O3,4.970661286236502
Cs1 Pr1 S2,4.35025298475293
Cs1 Pr3,5.689389445442397
Cs1 Rb1,1.768636851581567
Cs1 Rb1 As1,3.1197338171463858
Cs1 Rb1 Au2,0.6087093587708534
Cs1 Rb1 I2,0.4273909923639106
Cs1 Rb1 Mg6,2.011511586368147
Cs1 Rb1 Mn1 F6,3.616510895290205
Cs1 Rb1 N1,3.859597420293729
Cs1 Rb1 Na2,0.1607329243172449
Cs1 Rb1 O3,4.665614175855958
Cs1 Rb1 P1,2.8664706625248484
Cs1 Rb2 Bi1,0.2951949116080585
Cs1 Rb2 Sb1,3.799535236923613
Cs1 Rb3,1.665028454094132
Cs1 Re1 F6,4.622565179349552
Cs1 Ru1 F6,3.659710212313066
Cs1 Ru1 O3,6.942879627931556
Cs1 S1,3.0965582018374103
Cs1 S1 O3,2.9530925850333216
Cs1 Sb1 F6,3.846453855052181
Cs1 Sb1 O2,4.7143239880591175
Cs1 Sb1 O3,6.807856048934401
Cs1 Sc1 Br3,4.117894572995465
Cs1 Sc1 O2,3.7044550213344327
Cs1 Se1,4.250067658167773
Cs1 Se1 Br3,4.350892021270131
Cs1 Si1 I3,3.9088834231113
Cs1 Sm1 Cl3,3.889161994881095
Cs1 Sm1 O2,6.547706537632474
Cs1 Sm1 O3,5.454037584460338
Cs1 Sm1 S2,4.6719203127671145
Cs1 Sn1 Br3,4.000913232180879
Cs1 Sn1 Cl3,3.340110862276889
Cs1 Sn1 F3,4.352363781325892
Cs1 Sn1 I3,4.226897498662958
Cs1 Sn1 N1,5.913107344506384
Cs1 Sn1 O3,6.372339584282168
Cs1 Sn3,5.108296773038144
Cs1 Sr1 Br3,3.470150510472674
Cs1 Sr1 Cl3,2.885071907266964
Cs1 Sr1 F3,4.081815100707497
Cs1 Sr1 I3,3.686616465386644
Cs1 Sr1 O3,3.7220782487078896
Cs1 Sr3,2.578362595881343
Cs1 Ta1 N2,6.449455512346636
Cs1 Ta1 O3,8.442490841455836
Cs1 Tb1 O3,5.82034162502607
Cs1 Tb1 S2,4.969413629936819
Cs1 Te1,4.534723147146419
Cs1 Te1 Au1,5.555715307690348
Cs1 Te1 O3,6.6265151790822765
Cs1 Ti1 Cu3 Se4,4.5202815126129305
Cs1 Ti1 O3,5.48379645047965
Cs1 Ti1 S2,4.237258377228928
Cs1 Tl1 Br3,4.741479732296074
Cs1 Tl1 Cl3,4.240290935156971
Cs1 Tl1 F3,5.933049719793685
Cs1 Tl1 O1,6.514735041853713
Cs1 Tl1 O2,8.06637277241386
Cs1 Tl1 O3,6.859629555204839
Cs1 Tl2 Bi1,0.6126771810755407
Cs1 Tm1 Cl3,4.521685631042452
Cs1 Tm1 H3,5.737832422131382
Cs1 Tm1 O2,7.604244738444427
Cs1 Tm1 S2,5.307531306516722
Cs1 V1 C6,2.854729935718388
Cs1 V1 Cu3 Se4,4.6447901345149045
Cs1 V1 N2,4.7426240942787246
Cs1 V2 O5,3.09245674866009
Cs1 V2 S2 O1,4.094452895515045
Cs1 Y1,3.833530336313921
Cs1 Y1 O2,5.560311598554567
Cs1 Yb1 Br3,4.797825693373753
Cs1 Yb1 Cl3,4.286410771664112
Cs1 Yb1 F3,6.575144130146604
Cs1 Yb1 H3,5.229093811412781
Cs1 Yb1 O3,6.033209017803936
Cs1 Yb1 S2,4.989983824166051
Cs1 Yb1 Se2,5.562006952480652
Cs1 Yb3,5.213071681957724
Cs1 Zn1 N1,3.5099053092352084
Cs1 Zn4 As3,5.3019488391204295
Cs1 Zn4 P3,4.623105198554884
Cs1 Zn8,6.061098055234558
Cs1 Zr1 Cu3 Se4,4.519706534039684
Cs2 Ag1 Au1,0.5088749556273646
Cs2 Ag1 F4,4.851589123493341
Cs2 Ag1 F6,4.081958064019345
Cs2 Au1 Br1,0.539242845084051
Cs2 Au1 Cl1,0.561667822068315
Cs2 Au1 I1,0.5584593150353568
Cs2 Be1 O2,4.0022421695000086
Cs2 Br1 Cl1,3.935865658149796
Cs2 Ca1 Br4,3.456466533940528
Cs2 Ca1 Cl4,2.874984603930157
Cs2 Ca1 Cl4 O2,2.9080162624107646
Cs2 Ca1 F4,4.04297381180636
Cs2 Ca1 H4,3.089930327052884
Cs2 Cd1 Hg1,0.4297610250515734
Cs2 Ce1 Cl6,3.180171128036604
Cs2 Co1 F6,3.930462479186157
Cs2 Cr1 Cl4,3.382537638705784
Cs2 Cr1 F6,3.729478741799352
Cs2 Cu1 Br1 Cl3,3.804644441291098
Cs2 Cu1 F4,4.921468709170969
Cs2 Cu1 F6,3.912251540368908
Cs2 Cu1 O2,4.888797075320247
Cs2 Ga1 Fe1 S4,3.411289539159581
Cs2 Ge1 Cl6,3.096268876159121
Cs2 Ge1 F6,3.894137804202406
Cs2 H1 Cl1,0.4029740706214038
Cs2 H6 Pt1,4.157478082812132
Cs2 Hf1 Br6,4.433308599996832
Cs2 Hf1 Cl6,3.561597088661356
Cs2 Hf1 F6,4.956427182728452
Cs2 Hf1 I6,4.629361711677478
Cs2 Hg1 Au1,0.5821544230414218
Cs2 Hg1 F4,5.438489576681292
Cs2 Hg1 O2,5.481734956137484
Cs2 Hg1 Se1,0.5015721724843325
Cs2 Hg1 Te1,0.5079345161821781
Cs2 I1 Br1,0.4387999142202584
Cs2 Ir1 Cl6,3.826033880854368
Cs2 Ir1 F6,5.319965073903028
Cs2 K1 Na1,0.1835056307491472
Cs2 K1 Rb1,0.1689813244006938
Cs2 K1 Ti1 O2 F3,3.6894461130655705
Cs2 Mg1 H4,3.490043784782056
Cs2 Mn1 Cl4,3.294364201117717
Cs2 Mn1 Cl4 O2,3.019195343069925
Cs2 Mn1 Cl6,3.103751659675597
Cs2 Mn1 F4,4.527364710256354
Cs2 Mn1 F5,3.779584581837328
Cs2 Mn1 F6,3.769681678846328
Cs2 Mn1 O1 F5,3.7693189545671104
Cs2 Mn3 S4,3.687248773852085
Cs2 Mo1 Br6,4.101748499456793
Cs2 Mo1 Cl6,3.194292601785916
Cs2 Nb1 F6,4.226923180380442
Cs2 Ni1 F6,3.929267521618412
Cs2 Ni3 S4,4.25689458899824
Cs2 Ni3 Se4,5.0194311339302615
Cs2 O1,4.047968458054648
Cs2 O2,4.382307873960818
Cs2 O3,5.209578610798437
Cs2 Os1 Br1 Cl1 F4,4.650305068568756
Cs2 Pb1 Cl6,3.57271613830353
Cs2 Pd1 Br6,4.266311217205068
Cs2 Pd1 C2,4.34104572985297
Cs2 Pd1 Cl4,3.114174893715363
Cs2 Pd1 Cl6,3.332241311178606
Cs2 Pd1 F6,4.114337317755525
Cs2 Pd1 I2 Br4,4.541992374974573
Cs2 Pd1 I2 Cl4,4.001133122572818
Cs2 Pd1 I6,4.625222585648127
Cs2 Pd3 S4,4.7393003686661
Cs2 Pd3 Se4,5.345125447855374
Cs2 Pr1 F6,4.711392811062771
Cs2 Pt1,6.3166420437543085
Cs2 Pt1 Br6,4.630451648677471
Cs2 Pt1 C2,5.334606758628486
Cs2 Pt1 Cl6,3.7339799787641166
Cs2 Pt1 F6,4.825221208980314
Cs2 Pt1 I6,5.019904235147925
Cs2 Pt3 S4,6.300736597837459
Cs2 Pt3 Se4,6.809662544715589
Cs2 Rb1 Na1,0.1495837798074573
Cs2 Rb1 Sb1,0.2670127216923517
Cs2 Re1 Cl6,3.6217994414482826
Cs2 Re1 F6,5.301109929947756
Cs2 Rh1 F6,4.510387206393682
Cs2 S1,4.06293933572594
Cs2 Sb1 Br6,4.0288606073648365
Cs2 Sb1 Cl6,3.2248997094975977
Cs2 Se1,2.3379040742732005
Cs2 Se1 Cl6,3.04639959104064
Cs2 Si1 F6,3.629149364903436
Cs2 Sn1 Br6,4.046001515181056
Cs2 Sn1 Cl6,3.26938358152157
Cs2 Sn1 F6,4.453971247897348
Cs2 Sn1 I6,4.333491241485431
Cs2 Ta1 Cl6,3.5818392583975065
Cs2 Ta1 S6,3.927351820505333
Cs2 Tc1 Cl6,3.242496931131389
Cs2 Tc1 F6,4.389808162292685
Cs2 Tc1 I6,4.498783958982692
Cs2 Tc2 O5,6.139457014640795
Cs2 Te1 Br6,4.062434808402151
Cs2 Te1 Cl6,3.1467286800259937
Cs2 Te1 I6,4.366848880357585
Cs2 Ti1 Cl6,2.9633620564563734
Cs2 Ti1 I6,4.279745170559026
Cs2 Tm1 Cl4,3.881173612835831
Cs2 Tm1 H4,4.648703189596628
Cs2 V1 Cl6,3.0476836601814523
Cs2 W1 Br6,4.465235465200123
Cs2 W1 Cl6,3.6987102703423553
Cs2 W1 O2 F4,5.047991994048634
Cs2 Yb1 Cl4,3.791482972625338
Cs2 Yb1 H4,4.460994098953574
Cs2 Zr1 Ag2 Te4,5.186926841759152
Cs2 Zr1 Cl6,3.004516239428359
Cs2 Zr1 F6,4.127444113716249
Cs2 Zr1 I6,4.208775415856484
Cs3 As1,3.6479730197144313
Cs3 Bi1,4.654771562608768
Cs3 Ca1,2.0334986564457385
Cs3 Ge1,3.31183880458112
Cs3 Hg1,3.188081289407898
Cs3 I1,2.1893254250890606
Cs3 K1,1.7350331635712095
Cs3 Li1 Cl4,3.147562071615516
Cs3 Ni1,3.0275080737565454
Cs3 O1,2.716797010974668
Cs3 Pt1,5.112521953005365
Cs3 Rb1,1.844511870386351
Cs3 Sb1,4.228332040651216
Cs3 Si1,3.034399839433146
Cs3 Sr1,2.124080203392658
Cs3 V1 Se4,3.8680700559638495
Cs3 Yb1,2.6247099522096256
Cs4 C1 O4,3.549969707135287
Cs4 Ir1 O4,5.653770376098869
Cu1,0.1748549381081884
Cu1 Ag1 F3,5.888990141302523
Cu1 Ag1 O2,6.304047486206175
Cu1 Ag1 Pd2,0.7931286331713118
Cu1 Ag1 S1,5.922079690854884
Cu1 Ag1 Se1,7.754114356960773
Cu1 Ag1 Te1,7.277666185097361
Cu1 Ag1 Te2,6.887896844095928
Cu1 Ag2 O2,7.359351036365496
Cu1 Ag3,9.691546172854762
Cu1 As1,7.115978828942523
Cu1 As1 Se2,4.932468403715605
Cu1 As2,6.417113298498724
Cu1 Au1,14.089682332451204
Cu1 Au1 F5,5.79841127871236
Cu1 Au1 O2,8.851952831666695
Cu1 Au3,16.214535853238036
Cu1 Au4,16.608849537244435
Cu1 B1 O2,5.707927633073791
Cu1 B1 O3,5.399632296414096
Cu1 B1 S2,4.04170472021963
Cu1 B1 Se2,5.591577962783283
Cu1 Bi1,10.357297958809978
Cu1 Bi1 O2,7.41327936955716
Cu1 Bi1 O3,9.32628425431426
Cu1 Bi1 Se1 O1,6.561159682847026
Cu1 Bi1 Se2,7.842598056106484
Cu1 Bi1 Te1 O1,8.706890946338522
Cu1 Bi2 O4,9.163349600852513
Cu1 Bi2 Se2 O1,7.0670469060997725
Cu1 Bi2 Te2 O1,7.09516902486068
Cu1 Br1,4.865375073254104
Cu1 Br1 O2,3.646741871510777
Cu1 Br2,2.030989876068164
Cu1 Br2 N2,3.530994038585905
Cu1 Br2 N6,3.341667973794697
Cu1 Br4 N2 O2,3.000803666741845
Cu1 C1 Cl1 O1,2.7217597127823843
Cu1 C1 N1,2.819589713213412
Cu1 C1 N2,3.6781690680041126
Cu1 C1 O3,3.5137372355568783
Cu1 C1 S1 N1,2.86557367438041
Cu1 C6,1.8290307513851063
Cu1 Cl1,4.1218620959471854
Cu1 Cl1 O2,2.916642535588657
Cu1 Cl2,1.6002934156393478
Cu1 Cl4,2.752248397423521
Cu1 F1,4.81590221017716
Cu1 F2,2.0280481706095084
Cu1 Ge1 I3,5.0867939205212185
Cu1 Ge1 N2,6.729182851377078
Cu1 Ge1 P1 Se1,4.853175847464701
Cu1 Ge1 Rh2,10.493017659734605
Cu1 Ge2 P3,3.3070970637306
Cu1 Ge3,6.397595510938242
Cu1 H1,6.551347004731401
Cu1 H1 O2,4.033457769624298
Cu1 H2 Br4 N2,3.5920721161858267
Cu1 H4 O2 F2,2.6835706406214768
Cu1 Hg1 O2,8.313315928944172
Cu1 Hg1 O3,9.213171513943983
Cu1 Hg1 Pd2,0.8978626510849117
Cu1 Hg2 N2,10.409774125088957
Cu1 I1,5.259605739147026
Cu1 I2,4.090820600601608
Cu1 I2 N6,6.286151537534726
Cu1 I4,5.364724317171609
Cu1 I4 N4,4.640521861086648
Cu1 Ir1 Br1,10.248091092227432
Cu1 Mo1 F6,4.091971741424821
Cu1 Mo1 O4,4.932779946717667
Cu1 Mo1 S4 N1,2.6979030675711555
Cu1 N1,4.177095472908477
Cu1 N1 F3,3.8021512263930006
Cu1 N2 Cl4 O2,3.009862454323594
Cu1 N6 Cl2,3.030933378874362
Cu1 Ni1,9.050612289389315
Cu1 Ni1 Au1,12.802302891085674
Cu1 Ni1 Au2,1.1608089577140397
Cu1 Ni1 O2,6.5070241040560015
Cu1 Ni1 Pd1,9.759837010367914
Cu1 Ni1 Pd2,0.9517022128021132
Cu1 Ni1 Sb2,8.132512853491747
Cu1 Ni2 Ge1,1.058608219402566
Cu1 Ni2 Sb1,9.412687232042671
Cu1 Ni2 Sn1,9.329796432727012
Cu1 Ni3,9.043592452453398
Cu1 Ni3 N1,8.116465783420484
Cu1 Ni3 O4,6.668103893005709
Cu1 O1,3.731785226652237
Cu1 O2,1.438415533474034
Cu1 O2 F1,3.6348168681044473
Cu1 Os1 N2,10.358268378251212
Cu1 P1 N2,5.201510394722831
Cu1 P1 O4,3.4121612742798355
Cu1 P1 S2,3.3934425894243843
Cu1 P1 Se2,4.598675063678578
Cu1 Pb1 F6,5.171132512688882
Cu1 Pb1 O2,8.707581999386848
Cu1 Pb1 O3,9.109306585560445
Cu1 Pb2 Cl2 O2,7.354409701592714
Cu1 Pb2 Cl2 O4,5.625155607465515
Cu1 Pb2 O2 F2,7.6148159177979
Cu1 Pb2 S2 Cl2,6.204749284247896
Cu1 Pb3,10.546648556961117
Cu1 Pd1,10.108140591288002
Cu1 Pd1 Au2,1.172029462323571
Cu1 Pd1 O2,6.914185748035672
Cu1 Pd1 O3,6.63203672746162
Cu1 Pd2 Au1,1.0189457078068809
Cu1 Pd3,10.899925450073589
Cu1 Pt1,15.332760699741357
Cu1 Pt1 O2,9.703113866394776
Cu1 Pt3,1.832563568556411
Cu1 Pt7,19.40823028296519
Cu1 Re2 Cl1,14.14463773824558
Cu1 Rh1,10.310189795421527
Cu1 Rh1 O2,6.765949668255158
Cu1 Rh2 Pb1,12.460321116341492
Cu1 Ru3,11.218949110779976
Cu1 S1,2.6251165632358044
Cu1 S2,3.536110748651636
Cu1 Sb1 Pd2,0.8953708113078848
Cu1 Sb1 Rh2,10.75391558386766
Cu1 Sb1 Te2,6.156077503926828
Cu1 Se1,6.1306284584857895
Cu1 Se2,6.155329443959485
Cu1 Si1 Br1,4.5425828779769
Cu1 Si1 Ir2,1.2457802156072797
Cu1 Si1 Rh2,9.582062896646631
Cu1 Si1 Tc2,0.6919358386456528
Cu1 Si2 P3,2.556840861016368
Cu1 Si4 P3,2.9760672232545207
Cu1 Sn1,7.865649927546907
Cu1 Sn1 Au1,11.107262387705363
Cu1 Sn1 F6,4.321504544494796
Cu1 Sn1 Pd2,0.7923994794413558
Cu1 Sn1 Rh2,10.68558131024305
Cu1 Sn3,7.129401605205377
Cu1 Tc1 Bi1,10.098614987078903
Cu1 Te1,1.7287789735048815
Cu1 Te1 O4,5.07275088229118
Cu1 Te2,7.405458826245299
Cu1 W1 Se2,8.033308163722223
Cu2 Ag1 Au1,1.244762430804528
Cu2 Ag1 O4,5.381924872964444
Cu2 As1,7.816044786671997
Cu2 As1 O6,4.176202643060949
Cu2 As3,6.729313366635031
Cu2 B2 C1,4.0741920561107845
Cu2 B3 Ir4,14.874666481638526
Cu2 Bi1 S1 O2,4.973897978571391
Cu2 Br1 Cl1,5.5818195081249335
Cu2 Ge1 I6,4.880977645621263
Cu2 Ge1 S3,4.366734175878402
Cu2 Ge1 S4,3.878122765106488
Cu2 Ge1 Se3,5.426223202159607
Cu2 Ge1 Se4,5.238808170504809
Cu2 Ge1 Te3,5.852038083422413
Cu2 Hg1 Ge1 S4,5.354201903400196
Cu2 Hg1 Ge1 Se4,6.1783015547982405
Cu2 Hg1 I4,0.4875716819223991
Cu2 I1 Br1,6.466235834304109
Cu2 N1,7.285943443328541
Cu2 Ni1 Sb1,8.933807916646918
Cu2 Ni1 Sn1,9.1309151366741
Cu2 Ni1 Sn1 S4,4.612331141564572
Cu2 Ni1 Sn1 Se4,5.714194714558155
Cu2 O1,6.028164790035252
Cu2 Pd1 Au1,12.570328103579216
Cu2 Pd1 Pt1,1.300825110986134
Cu2 Pt1 Au1,2.095311528627702
Cu2 S1,3.4788811847613936
Cu2 Sb1,8.363481634210663
Cu2 Sb1 O5,0.8575476694353206
Cu2 Se1,6.604910674394852
Cu2 Si1 Hg1 Te4,6.2508022707276165
Cu2 Si1 Ni1 S4,4.0263169935677965
Cu2 Si1 O4,4.418663347307128
Cu2 Si1 Te3,5.614235072393881
Cu2 Sn1 Hg1 S4,5.456979259530081
Cu2 Sn1 Hg1 Se4,6.197905257927689
Cu2 Sn1 Hg1 Te4,6.35133357597654
Cu2 Sn1 S3,4.63069146425927
Cu2 Sn1 Se3,5.517075837369326
Cu2 Sn1 Se4,5.508531444258362
Cu2 Sn1 Te3,5.913791329386556
Cu2 Sn2 Pd1,8.38610240941585
Cu2 Te1,6.185852473961427
Cu2 W1 S4,4.29948901624658
Cu2 W1 Se4,5.804238200474864
Cu3 Ag1,9.244210421788912
Cu3 As1,8.260920236016885
Cu3 As1 S4,4.213865725713047
Cu3 As1 Se4,5.485508430546522
Cu3 Au1,11.974617292696903
Cu3 Cl1,6.5818220843861095
Cu3 F1,7.245456849831532
Cu3 Ge1,8.200622179383835
Cu3 N1,6.12162020371774
Cu3 N1 F3,5.837097027850725
Cu3 Ni1,9.00118531508023
Cu3 Ni1 Hg1 Se4,6.416890269765698
Cu3 Ni1 Pb1 Se4,6.203800365811653
Cu3 O2,6.147635985624615
Cu3 P1,7.22811361707354
Cu3 Pd1,9.62310566969492
Cu3 Pd1 Au4,14.56212655669063
Cu3 Pd1 N1,8.851798420613749
Cu3 Pt1,12.413225480897289
Cu3 Rh1,9.48678479307286
Cu3 Rh1 N1,8.957770100102627
Cu3 Ru1,9.604798891600783
Cu3 Ru1 N1,8.752007588846086
Cu3 S2,5.912463467460496
Cu3 Sb1,7.993358873832315
Cu3 Sb1 S4,4.611828930639703
Cu3 Sb1 Se4,5.589863462812801
Cu3 Si1,7.583022333041316
Cu3 Sn1,8.764664069004965
Cu3 Te1,8.596295408717864
Cu3 Te1 S3 Cl1,4.583606581678579
Cu3 Te2,7.473252465380729
Cu3 W1,12.01422688667648
Cu4 Au1,11.223110407539597
Cu4 Br1 Cl3,5.23391287322806
Cu4 Br3 Cl1,5.83132194868337
Cu4 I1 Br3,6.292272324079739
Cu4 I3 Br1,6.544435702292912
Cu4 I3 Cl1,6.315735504856599
Cu4 S3 N1,4.410341581328002
Cu4 Se3,6.85978510468999
Cu5 Ge2,7.802930611398984
Cu6 Au1 N2,8.46150678205171
Cu6 Ge1 Sb1,8.06255293498969
Cu6 O1,0.8976659757405868
Cu6 Pd1 N2,7.551689890005888
Cu6 Sn1 Ge1,8.65620756718536
Cu7 Si2,7.587918869967147
Cu8 O1,8.064159736219928
Dy1,8.424297100481851
Dy1 Ag1,9.284461939075598
Dy1 Ag1 Ge1,8.764741505732054
Dy1 Ag1 Hg2,12.403337017319368
Dy1 Ag1 Pb1,9.851992739989342
Dy1 Ag1 Sb2,8.635432485295878
Dy1 Ag1 Se2,7.067311825021044
Dy1 Ag1 Sn1,8.543756386488434
Dy1 Ag1 Sn2,8.828297415007814
Dy1 Ag1 Te2,6.764782909135857
Dy1 Ag2,9.622811121329931
Dy1 Ag3,9.744184464476952
Dy1 Al1,6.760611712356032
Dy1 Al1 Ag2,8.388148936576874
Dy1 Al1 Co4,8.19107871811796
Dy1 Al1 Cu1,7.260125262158944
Dy1 Al1 Cu4,7.899277397589961
Dy1 Al1 Ga1,7.003017067452348
Dy1 Al1 Ge1,7.092085687109485
Dy1 Al1 Ni1,7.589343538480465
Dy1 Al1 Ni4,8.294557056617387
Dy1 Al1 O3,7.714647395547082
Dy1 Al1 Si1,5.944813703998812
Dy1 Al1 Zn1,6.785827726350811
Dy1 Al2,5.908221650215226
Dy1 Al2 Ge2,5.71527318657672
Dy1 Al2 Ni1,6.560884833971205
Dy1 Al2 Si2,4.4873775192735375
Dy1 Al3,5.020331139850116
Dy1 As1,7.973968052085133
Dy1 Au1,12.434573014424007
Dy1 Au2,14.437846160517298
Dy1 Au3,15.44735044864608
Dy1 B1 C1,5.397996029063512
Dy1 B1 Pd3,10.14836517403976
Dy1 B1 Rh3,10.746095773821176
Dy1 B2,8.402817227510461
Dy1 B2 Ir3,15.453033477566729
Dy1 B2 Rh2 C1,8.947638587360284
Dy1 B2 Rh3,10.195579893572331
Dy1 B2 Ru3,10.138599243086388
Dy1 B6,5.498369218571405
Dy1 Be1 Cu4,8.249255331329774
Dy1 Bi1,9.724469520220412
Dy1 Bi1 O3,8.054787334038725
Dy1 Bi1 Pd1,10.418726737940736
Dy1 Bi1 Pt1,12.266271446355791
Dy1 Bi1 Rh1,11.590365332842484
Dy1 Bi2 Br1 O4,8.423513003242995
Dy1 Bi2 Cl1 O4,8.189800366409605
Dy1 Bi2 I1 O4,8.475085632881713
Dy1 Br2,5.531093688152965
Dy1 Br3,3.5922371890878035
Dy1 C2,7.397959545036416
Dy1 Cd1,8.648469118651581
Dy1 Cd1 Ag2,9.467565258436313
Dy1 Cd1 Au1,11.353860841114392
Dy1 Cd1 Au2,13.02066377312434
Dy1 Cd1 Cu1,8.804400846113847
Dy1 Cd1 Ga1,8.540629660450582
Dy1 Cd1 Hg2,11.93839451792782
Dy1 Cd1 In1,8.449392248564214
Dy1 Cd1 Ni4,9.788844172785051
Dy1 Cd1 Pd2,10.343495071297736