Composition,Density
Nd1 Zr1,6.911113362662028
Nd2 Ag1 Hg1,9.010803104125728
Nd2 Ag1 Ir1,10.147650931827725
Nd2 Ag1 Ru1,8.680449399321306
Nd2 Ag1 Sb3,0.3610207669319099
Nd2 Al1,5.757157789053084
Nd2 Al1 Co2,7.207794893130167
Nd2 Al1 N1 O3,7.135184541416359
Nd2 Al1 Ni2,7.101373743030365
Nd2 Al3 Ga1,5.352073164007639
Nd2 Al3 Ge1,5.2603570996196405
Nd2 As3 Au1,0.4341506735557083
Nd2 As3 Rh3,2.228128353983476
Nd2 B1 C1,5.912750930493404
Nd2 Bi1,8.398806340937972
Nd2 Bi1 N1,8.01726335000653
Nd2 Bi1 O2,7.720738087685652
Nd2 Br2 O1,3.1028067964122754
Nd2 C1 N2 O2,5.366641330140992
Nd2 Cd1 Ag1,7.633125299314051
Nd2 Cd1 As2 O1,5.256300187738081
Nd2 Cd1 Cu2,7.525044619282499
Nd2 Cd1 Hg1,8.73595362247114
Nd2 Cd1 In1,7.347673665646402
Nd2 Cd1 Sb3,0.37388175674075
Nd2 Cd1 Sb4,7.095112265931237
Nd2 Cd2 O5,7.2723973163343825
Nd2 Cl2 O1,2.606326730330126
Nd2 Co1,6.70544354876806
Nd2 Co1 O4,7.305017483548652
Nd2 Co1 Sb4,7.447786735359576
Nd2 Co1 Si3,5.96822034291138
Nd2 Co1 Sn4,7.706225358422648
Nd2 Co2 Si1 C1,7.010771279183746
Nd2 Cr2 O5,6.953056862903472
Nd2 Cu1 Ge6,6.9649093039869765
Nd2 Cu1 Ir1,10.049951442971548
Nd2 Cu1 O4,7.086167303782593
Nd2 Cu1 Ru1,8.416428520770992
Nd2 Cu1 S2 O1,3.7137553660089857
Nd2 Cu1 Sb3,0.1071964011984078
Nd2 Cu1 Si3 Rh2,7.135517661679156
Nd2 Cu1 Te2 O1,5.219464692353889
Nd2 Cu3 Sn3,6.822186884437377
Nd2 Fe1,7.173713402297474
Nd2 Fe1 As2 O1,5.042918418895868
Nd2 Fe1 Ge4,7.109124754374116
Nd2 Fe1 Sb4,7.327831068766594
Nd2 Fe1 Si2 Ru1,6.904090217627305
Nd2 Fe1 Si3,5.916214064227596
Nd2 Fe2 Se2 O3,6.3650611949214895
Nd2 Fe2 Si2 C1,6.602582124424178
Nd2 Ga1 Ag1,7.377870586047276
Nd2 Ga1 Co2,7.97985199117034
Nd2 Ga1 Ni2,7.84053964948663
Nd2 Ga3 Cu1,7.125728237147059
Nd2 Ge3,6.702899615677929
Nd2 Ge3 Ir1,8.658106242596904
Nd2 Ge3 Ir3,10.434049482147064
Nd2 Ge3 Pd1,7.557970656603963
Nd2 Ge3 Pt1,8.573587766574493
Nd2 Ge3 Rh1,7.576711329535565
Nd2 Ge6 Pd1,7.129861120168416
Nd2 Ge6 Pt1,7.824329205036367
Nd2 Hg1 Pb1,9.871726091770794
Nd2 Ho2 O5,7.046235811361005
Nd2 In1,7.169066373357868
Nd2 In1 Ag1,7.391974111356296
Nd2 In1 Hg1,8.626956467691146
Nd2 In3 Cu1,7.477490908230122
Nd2 In3 Ni1,7.595303977581069
Nd2 In3 Sn3,7.65126213099782
Nd2 Ir1 Au1,11.7556823483631
Nd2 Ir1 Pd1,10.61936576649694
Nd2 Ir1 Rh1,10.86013859051696
Nd2 Ir1 Ru1,10.927680643070026
Nd2 Mg1,5.470942443052752
Nd2 Mg1 Al1,5.167736416377842
Nd2 Mg1 Cd1,6.101574091458764
Nd2 Mg1 In1,6.089796443697523
Nd2 Mg1 Tl1,7.263059139579559
Nd2 Mn1 As2 O1,4.909863681890543
Nd2 Mn1 P2 O1,4.151432503231857
Nd2 Mn1 Sb2 O1,5.162326926372713
Nd2 Mn1 Si2,5.72350046637062
Nd2 Mn1 Si2 H1,4.822200610919029
Nd2 Mn2 Cu1 Ge3,7.064539152978411
Nd2 Mn2 Cu1 Si3,6.127462158450135
Nd2 Ni1 Ge3,7.255839609463422
Nd2 Ni1 Ge6,7.064635019914535
Nd2 Ni1 Ir1,10.097751883329808
Nd2 Ni1 O4,6.957071589336867
Nd2 Ni2 Sn1,8.092903547871211
Nd2 O3,5.275942423690727
Nd2 O3 F3,5.165287179742421
Nd2 P3 Rh3,6.87548013974646
Nd2 Pd1 O4,7.472413762160968
Nd2 Pd1 Ru3,10.087842753815728
Nd2 Re2 Si2 C1,9.40344676549682
Nd2 S1 O2,6.221851592150614
Nd2 S1 O6,5.357623650668412
Nd2 S2 F1,3.5706278044965893
Nd2 Sb1,7.297679163360577
Nd2 Sb1 O2,6.625695401309327
Nd2 Sb3 Au1,0.356693404711464
Nd2 Sb3 Pd1,0.8537407000408472
Nd2 Se1 O2,6.706178842125372
Nd2 Se2 F1,5.327141639921845
Nd2 Si3,5.253926041559908
Nd2 Si3 Ag1,6.194691202700147
Nd2 Si3 Ir3,9.533394001463504
Nd2 Si3 Ni1,5.911049040407945
Nd2 Si3 Pt3,9.598264968791444
Nd2 Sn1 Hg1,8.79561888099019
Nd2 Sn4 Pd1,7.745354495134095
Nd2 Sn4 Rh1,7.795080632519824
Nd2 Sn4 Ru1,7.756309321013584
Nd2 Te1 O2,6.894901377433091
Nd2 Te1 S2,5.457868830913356
Nd2 Ti1 Ge2,6.020449740689909
Nd2 Tl1,8.678745464466525
Nd2 Tl1 Ag1,8.747788423617553
Nd2 Tl1 Cd1,8.523964873840328
Nd2 Tl1 Hg1,9.82583870176818
Nd2 Tl1 In1,8.506870576999498
Nd2 Tm1,7.5555759176943456
Nd2 Y1,6.064185148191414
Nd2 Zn1 Ag1,7.378440073254086
Nd2 Zn1 Ga1,6.949686793426928
Nd2 Zn1 Hg1,8.555573704641763
Nd2 Zn1 In1,5.93600385668235
Nd2 Zn1 Ir1,9.66503630268393
Nd2 Zn1 Ru1,8.10553004748109
Nd2 Zn1 Sb2 O1,5.132265245147041
Nd2 Zn1 Sb3,0.3136775852979132
Nd2 Zn1 Sb4,7.092369730391052
Nd3 Ag1,7.532330474408394
Nd3 Al1,6.440856906040167
Nd3 Al1 C1,5.904594405976749
Nd3 Al1 N1,4.626233406968918
Nd3 Au1,9.03928071239032
Nd3 B2 N4,6.959899323388342
Nd3 Br1,6.827215622443104
Nd3 Cd1,7.255410674628911
Nd3 Cl1,6.47577973528524
Nd3 Cr1,6.7276603836354605
Nd3 Cu1,7.360903732747884
Nd3 Dy1,7.095986977332728
Nd3 Er1,7.156713741036869
Nd3 Eu1,6.676631621829731
Nd3 Ga1,7.248522552903159
Nd3 Ga1 C1,5.126462467456422
Nd3 Ga1 N1,5.1403919987422055
Nd3 Hf1,8.117007758199229
Nd3 Hg1,8.690621777033954
Nd3 Ho1,7.160736231290554
Nd3 I1,6.961393080092501
Nd3 In1,7.196178976933498
Nd3 In1 C1,3.993117407636687
Nd3 In1 N1,4.084023636089754
Nd3 Lu1,7.499981636945191
Nd3 Mg1,5.9065152427183625
Nd3 Pb1 C1,5.301577179269063
Nd3 Pb1 N1,5.291532619105942
Nd3 Pd1,7.870453981910716
Nd3 Sc1,6.054793365929698
Nd3 Si1,6.962380663411666
Nd3 Si3 Ni1,6.086077294838205
Nd3 Sm1,6.835905482856106
Nd3 Sn1 C1,4.747895101585002
Nd3 Sn1 N1,4.727326529243517
Nd3 Ti1,6.58478201544951
Nd3 Tl1,8.457985714037688
Nd3 Tl1 C1,5.451905269184363
Nd3 Tl1 N1,5.446285797049368
Nd3 Tm1,7.228788662823993
Nd3 Y1,6.12847308828867
Nd3 Zn1,7.007787323471414
Nd3 Zr1,6.824494763381113
Nd4 Cu3 Ni1,7.419810106513586
Nd4 Mg3 Co2,5.551720476081409
Nd4 Si5,5.6009079831119175
Nd5 Mg1,6.125290192468966
Nd5 S4,6.052790928958424
Ne1,1.6813560067118354
Ni1,2.6600531942402816
Ni1 Ag1 F3,4.518644108778625
Ni1 Ag1 O2,6.855811403582223
Ni1 Ag1 Se2,6.78062426791699
Ni1 Ag1 Te2,7.1623216188859296
Ni1 Ag2 O2,8.221194800002008
Ni1 Ag3,9.831616730278608
Ni1 As1,7.279516032901506
Ni1 As1 O3,5.97129373706661
Ni1 As1 Pd1,9.433041074897266
Ni1 As1 Rh1,9.699398093443111
Ni1 As2,6.943241404113259
Ni1 Au1 O2,9.791344073646073
Ni1 Au3,16.503185454519503
Ni1 B1,7.165930276400419
Ni1 B1 Te1,7.02311794356365
Ni1 B2 Mo2,8.68820563927874
Ni1 B2 W2,14.237632093046573
Ni1 Bi1,10.98227014069688
Ni1 Bi1 B1,9.385765228263493
Ni1 Bi1 O3,8.825467439361974
Ni1 Br1 O1,5.13515254716296
Ni1 Br2,0.1988419528855299
Ni1 C1,6.981598610426691
Ni1 C1 N2,4.159001551282713
Ni1 C2 S2 N2,2.3972209690695645
Ni1 Cl1,4.417387357466317
Ni1 Cl2,3.22131030208897
Ni1 Cl2 O6,2.384439187684932
Ni1 Cl6,0.1527803561560966
Ni1 F2,4.655344723191191
Ni1 F3,3.1312465443562387
Ni1 Ge1,7.985962658464529
Ni1 Ge1 N2,6.974898572153637
Ni1 Ge1 Pd1,9.471640903120424
Ni1 Ge1 Pt2,15.178884690090973
Ni1 Ge1 Rh2,0.9066424501938348
Ni1 Ge2 Pd1,8.522207768293743
Ni1 Ge3,7.029138855830196
Ni1 H1,7.751649992963972
Ni1 H1 O2,4.329114672655916
Ni1 H2 O2,2.3391303579060483
Ni1 H3,3.875597582624382
Ni1 H6 Cl2,1.7831335808450697
Ni1 Hg1,13.735784312124744
Ni1 Hg4,12.093855813988256
Ni1 I1,6.296658273488529
Ni1 I2,5.584908625525181
Ni1 I2 N2,6.857485409329496
Ni1 I2 O6,4.339885980220404
Ni1 Ir1,16.09393655787321
Ni1 Ir3,19.19801207443626
Ni1 Mo1 O3,5.553437794465943
Ni1 Mo1 P1,8.299220745760733
Ni1 Mo1 P2,6.624753081646241
Ni1 N1,4.452742265475101
Ni1 N1 F3,3.551250715927236
Ni1 N2 F4,2.711258698802958
Ni1 N6 Cl2,2.9830312507172905
Ni1 O1,4.86350294854803
Ni1 O1 F1,4.855754281641992
Ni1 O2,3.170678840646732
Ni1 O3,1.741690614670882
Ni1 Os1 N2,10.651799130661333
Ni1 P1 Pd1,8.530946376334782
Ni1 P1 Rh1,8.778560906641182
Ni1 P1 W1,12.20363581323816
Ni1 P2,4.476788433855286
Ni1 P2 S6,2.6351997817815174
Ni1 P2 W1,9.13285532785229
Ni1 Pb1,11.388375322021515
Ni1 Pb1 F6,5.525267512181205
Ni1 Pb1 O3,9.420293410987233
Ni1 Pd1,10.215736069737876
Ni1 Pd1 O3,7.042822187086094
Ni1 Pd3,11.28598850379075
Ni1 Pt1,15.632743375426722
Ni1 Pt1 F6,5.994356125268199
Ni1 Pt1 O2,10.546314245519335
Ni1 Pt1 O3,8.10360470965608
Ni1 Pt3,18.31999575344437
Ni1 Rh1,10.544070146629306
Ni1 Rh1 F6,4.456932432808203
Ni1 Rh2 Se4,7.52752671006213
Ni1 Ru1,10.513945421859964
Ni1 Ru1 Br2,7.975856088204423
Ni1 Ru1 O3,6.7144582836993925
Ni1 S1,5.477143979253761
Ni1 S2,2.9713796264774164
Ni1 Sb1,8.564299413367424
Ni1 Sb1 O3,6.903777905566449
Ni1 Sb2,7.811226227273962
Ni1 Se1,6.304109992126636
Ni1 Se2,6.615150506707069
Ni1 Sn1 F6,4.412043758946251
Ni1 Sn1 Rh2,10.662592504721898
Ni1 Sn2 Au1,9.877627005718278
Ni1 Te1,7.171055075228673
Ni1 Te1 Se1,7.088737635953032
Ni1 Te2,7.550132161921391
Ni2 As3 Pd4,9.552523273378476
Ni2 B1,8.108395590026472
Ni2 Ge1,8.903013680145172
Ni2 H1,8.335112372080578
Ni2 Mo1,9.44420755228846
Ni2 P1,7.387820358381179
Ni2 P1 Pd1,8.771862454049565
Ni2 S1,7.1909072327492565
Ni2 Sb1 Te1,8.455847587783772
Ni2 Sn4 Au1,9.176121342494886
Ni3 Ag1,9.43403601969119
Ni3 As1,9.026327180892585
Ni3 Au1,12.25412626448095
Ni3 Bi1,11.45259086831004
Ni3 Bi2 S2,8.332052751044856
Ni3 C1,7.986648347113205
Ni3 Cl4,4.345107383931615
Ni3 Ge1,9.008469954937542
Ni3 Ge1 C1,7.836248951511916
Ni3 H1,7.702964106760016
Ni3 Hg1,11.878864554996364
Ni3 I1,9.21212069492646
Ni3 Mo1,9.257027075671663
Ni3 N1,8.019197167851665
Ni3 Pb1,11.521301705988142
Ni3 Pb2 S2,8.474617233990006
Ni3 Pb2 Se1 S1,8.80994319870269
Ni3 Pb2 Se2,9.078451471028863
Ni3 Pt1,12.69028606063887
Ni3 Rh1,9.872490273177782
Ni3 S1,7.684043267514061
Ni3 S2,5.787449618175745
Ni3 Sb1,9.542405946256237
Ni3 Sb1 N1,8.547402603090255
Ni3 Sb2 Te2,8.057645385082811
Ni3 Se1,8.806001018145647
Ni3 Se2,7.305191524695854
Ni3 Se4,6.970515275457181
Ni3 Sn1,9.42417033735648
Ni3 Sn1 N1,8.58787432195096
Ni3 Sn2 S2,6.788405563536658
Ni3 Sn4,8.453748072947574
Ni3 Sn4 Pt2,10.593683726310635
Ni3 Te1,9.582207151168872
Ni3 Te4,7.933256420472371
Ni4 Ge1,8.747753602817639
Ni4 Mo1,9.438041632953182
Ni4 N1,5.46989675724559
Ni4 N3,7.395268251021376
Ni4 O1,7.225732745193388
Ni4 O3,6.503405419459091
Ni4 Ru1,9.71234438946005
Ni4 W1,11.89007193534111
Ni5 O4,6.26217280475596
Ni6 Ge2 B1,8.569814823897165
Ni6 Ge2 P1,8.33137832989964
Ni6 Sb1 Te2,8.676397184312433
Ni6 Sn1 Sb1,9.592839548453744
Ni6 Sn1 Se2,8.14933009714584
Ni6 Sn1 Te2,8.647313598461604
O1 F1,2.05400100016712
O1 F3,2.361597743424292
O2,1.1409697618155776
Os1,3.4809190344044407
Os1 Au3,18.905693944239648
Os1 C1,13.68952199837832
Os1 C2,12.408761947172612
Os1 Cl2 O1,5.372875919183908
Os1 Cl4,4.000113959527801
Os1 N1,13.92962456744305
Os1 N2,10.568466136844435
Os1 N2 Cl6,3.0600179244118686
Os1 O2,11.22797561553578
Os1 O4,4.389479957096201
Os1 Pb3,13.79903839135638
Os1 Pt1 Cl2,11.487709901094474
Os1 Pt3,20.986528090270262
Os1 Pt4,20.91694782886898
Os1 Rh3,14.469228395115287
Os1 Ru1,17.095496374797484
Os1 Ru3,14.626158044462938
Os3 Cl1,16.808754471715705
Os3 F1,18.03946760069141
Os3 O1,17.894851732885677
Os3 W1,21.184545858792507
Os3 W3 C2,18.20113912386496
P1,0.2985694719708449
P1 Au3,14.471984406987575
P1 Br1,2.302843808138023
P1 Br2,0.2135748243145693
P1 H1 N2,2.4464865741945143
P1 I2,3.3323309636323595
P1 I3,3.359717132738262
P1 Ir2,15.75040325840687
P1 N1 F2,2.1955089938164303
P1 N1 O1,2.61435042191766
P1 O2,1.276363667527692
P1 Pb1 W1,9.686891367321822
P1 Pb3,9.60171434562936
P1 Pd6,10.190310259326722
P1 Pt1,9.738501466671348
P1 Pt3,16.479685155819215
P1 Rh2,9.132703519907585
P1 Ru1,8.012174518486303
P1 W1,12.10182245775949
P2 O5,3.937857021427678
P2 Os1,9.334691673692266
P2 Pd1,5.431192598644359
P2 Rh3,8.643317376683976
P2 Ru1,6.117527333316231
P2 S1,3.2038332475358047
P2 Se1,4.319143603630093
P2 W1,9.119852550205428
P3 Au1,5.611982570493406
P3 H1,3.3019778908260227
P3 N5,3.510957854684606
P3 W1,8.222026364109604
Pb1,7.778868002989944
Pb1 Au1 O2,9.519180311059635
Pb1 Au1 O3,10.514280914279322
Pb1 Au2,14.8209422929245
Pb1 Au3,15.69608888990316
Pb1 Br1 Cl1,6.128667435404393
Pb1 Br1 F1,7.34736775378373
Pb1 Br2,5.13704931382946
Pb1 C1,9.556615767135074
Pb1 C1 I3 N1,4.073346818215369
Pb1 Cl1 F1,5.399764350075392
Pb1 Cl2,4.436947078051351
Pb1 F2,7.476616834947293
Pb1 F4,5.807856049099866
Pb1 I1 F1,6.909090836228223
Pb1 I2,5.112644211758223
Pb1 I6,0.2277321872717926
Pb1 N1,9.024154586219664
Pb1 N2 Cl6,2.850353884080911
Pb1 N2 F6,4.226691445918199
Pb1 O1,7.88572866132896
Pb1 O2,8.918867085097688
Pb1 S1,1.965545465358616
Pb1 S2,5.679453291767977
Pb1 Se1,4.062929403870794
Pb1 Se2,7.255679532705848
Pb2 Au1,12.486990848231391
Pb2 Br2 F1,4.442356815163019
Pb2 C1 O6,5.33156396588248
Pb2 Cl1 O2,7.766335481224688
Pb2 Cl2 F1,4.791319172340296
Pb2 I1 O2,8.222739105451078
Pb2 O1,8.722243354793145
Pb2 Se1 S1,7.601214517724571
Pb3 Br1 F5,5.232709737061424
Pb3 N4,7.922209066747599
Pb3 O1,10.384072138227456
Pb3 S1,9.572210790127388
Pb4 Se1 S3,7.543596880386293
Pb4 Se3 S1,7.752589336244868
Pd1,11.399136295945397
Pd1 Au1,14.986629763288876
Pd1 Au1 O2,9.542316735752683
Pd1 Au3,16.576936914903943
Pd1 Br2,4.066309295639091
Pd1 Br4 N2,4.13139958225425
Pd1 Br6 N2,3.694389826146826
Pd1 C1,7.463176334322634
Pd1 C1 N2,3.831617345316983
Pd1 Cl2,3.3228003236394064
Pd1 F2,5.616883596253136
Pd1 F3,1.8962732259375483
Pd1 I2,4.80363486547821
Pd1 N1,4.4740944837533405
Pd1 N2,4.000664197037069
Pd1 N2 Cl2,2.8017708640755137
Pd1 N2 Cl4,2.6777403199907903
Pd1 N2 Cl6,2.349672509053957
Pd1 O1,7.793970983905127
Pd1 O2,6.783213993342548
Pd1 Pb1 O2,9.052020002819765
Pd1 Pb2,11.782374733863442
Pd1 Pb3,11.435162388328797
Pd1 Pb4 Au1,12.3568729692114
Pd1 Pt1,16.184384339397095
Pd1 Pt1 Au1,16.84856461208866
Pd1 Pt1 F6,6.140604601987188
Pd1 Pt3,18.332822425320305
Pd1 Rh1,11.734463073808108
Pd1 Rh1 Pb4,12.053292010931765
Pd1 Ru1,11.778859340514988
Pd1 S2 Cl6,2.376390823844164
Pd1 S3,3.7163003349180617
Pd1 Se2,1.2819232067533572
Pd1 Se2 Br6,3.713193693003347
Pd1 Se6 Br2,4.431126794174856
Pd1 W1,15.418246140974167
Pd2 N1,6.704130809598748
Pd2 O1,8.10903117235241
Pd2 Pb1 Au1,1.016824557956587
Pd3 Au1,13.33996522587296
Pd3 F1,9.518512128840706
Pd3 I1,10.367330618673847
Pd3 N1,8.10722776037932
Pd3 N2,8.971713044183142
Pd3 Pb1,12.497629508578518
Pd3 Pb1 C1,11.254481917802194
Pd3 Pb2 S2,8.801394435553068
Pd3 Pb2 Se2,9.385235726093818
Pd3 Rh1,11.545200419219494
Pd3 S1,9.035558638585549
Pd3 W1,13.696770110372755
Pd4 W1,13.079934374613588
Pm1,6.921892901449633
Pm1 Ag1 Au2,12.213707065024744
Pm1 Ag1 Hg2,11.524365237937973
Pm1 Ag2 Pb1,9.830588766560473
Pm1 Ag2 Sn1,8.765587553032512
Pm1 Ag3,8.667411529169394
Pm1 Al1 Ag2,7.604164562689587
Pm1 Al1 Au2,11.128950200094549
Pm1 Al1 Cu2,7.042756018604815
Pm1 Al3,4.502679429300461
Pm1 As3,7.053298598222176
Pm1 Au3,14.043131052823291
Pm1 B3,6.34747641633839
Pm1 Be1 O3,6.964168280987622
Pm1 Bi1 Au2,12.769819653798974
Pm1 Bi1 Pd2,10.78476830526163
Pm1 Bi1 Rh2,11.372099678253102
Pm1 Bi3,10.208468269349869
Pm1 Br2,4.815337065395193
Pm1 Br3,3.4310469284099683
Pm1 Cd1 Ag2,8.671144588693238
Pm1 Cd1 Au2,12.024226705675328
Pm1 Cd1 Cu2,8.217159444810667
Pm1 Cd1 Hg2,11.124843347772886
Pm1 Cd1 Pd2,9.458386842106671
Pm1 Cd1 Pt2,13.024392703735735
Pm1 Cd1 Rh2,10.014637105783716
Pm1 Cd3,8.012413838707525
Pm1 Cl2,3.980213949636775
Pm1 Cl3,2.730089829193868
Pm1 Cu2 Si1,7.401608753366109
Pm1 Cu2 Sn1,8.453009688009999
Pm1 Cu3,7.781680035307106
Pm1 Dy1 Al2,6.2014804761541695
Pm1 Dy1 Cu2,8.356835522726627
Pm1 Dy1 Hg2,10.929463772608528
Pm1 Dy1 In2,8.074075358677469
Pm1 Dy1 Mg2,5.292342883995638
Pm1 Dy1 Rh2,10.000639864670203
Pm1 Dy1 Ru2,10.325170346124311
Pm1 Dy1 Tl2,10.485975388810637
Pm1 Dy1 Zn2,7.707242892510006
Pm1 Dy3,8.004189703933264
Pm1 Er1 Al2,6.382519474709365
Pm1 Er1 In2,8.114761180533653
Pm1 Er1 O3,7.703569739272002
Pm1 Er1 Pd2,9.740727076497391
Pm1 Er1 Tl2,10.640681589743064
Pm1 Er1 Zn2,7.836398070102273
Pm1 Er3,8.399622751895814
Pm1 Eu1 Hg2,9.853092513986024
Pm1 Eu1 O3,6.513585180689889
Pm1 Eu1 Pd2,8.875482843727873
Pm1 Eu1 Pt2,11.989789454207658
Pm1 Eu1 Rh2,9.62587891261258
Pm1 Eu1 Zn2,7.114515296272446
Pm1 Eu3,6.393491362130671
Pm1 F3,7.1892313819897256
Pm1 Ga1 Ag2,8.423403648067891
Pm1 Ga1 Au2,11.782365726519496
Pm1 Ga1 Cu2,7.989010507875921
Pm1 Ga1 Pd2,9.220869597380972
Pm1 Ga1 Rh2,9.786318922731365
Pm1 Ga3,7.112690354153875
Pm1 Gd1 Al2,6.028992299815672
Pm1 Gd1 Cu2,7.809469544038933
Pm1 Gd1 Hg2,10.698464257932203
Pm1 Gd1 In2,7.830995591912149
Pm1 Gd1 Mg2,5.043447468780661
Pm1 Gd3,7.939527887065696
Pm1 Ge1 Au2,11.69739335112185
Pm1 Ge1 Pd2,9.313021619236888
Pm1 Ge3,7.057965609835276
Pm1 H1,6.334473078194073
Pm1 H3,6.373150039098447
Pm1 Hf1,9.808656725605925
Pm1 Hg1 Au2,13.556032833945045
Pm1 Hg1 Rh2,11.846542088656127
Pm1 Hg3,12.480550322983252
Pm1 Ho1,7.761547213761901
Pm1 Ho1 Al2,6.285988936300123
Pm1 Ho1 Cu2,8.418086944984202
Pm1 Ho1 In2,8.106704766064134
Pm1 Ho1 Ir2,13.792289319522991
Pm1 Ho1 Mg2,5.344504488255279
Pm1 Ho1 Rh2,10.228414368714478
Pm1 Ho1 Ru2,10.451993721673194
Pm1 Ho1 Tl2,10.55785234606259
Pm1 Ho1 Zn2,7.83084565738529
Pm1 Ho3,8.181314327268163
Pm1 I1,7.192994195551762
Pm1 I3,3.7152348508502735
Pm1 In1 Ag2,8.745027805741989
Pm1 In1 Au2,11.986226756625191
Pm1 In1 Cu2,8.390125987462827
Pm1 In1 Hg2,10.783409280327929
Pm1 In1 Ni2,8.803869999322739
Pm1 In1 O3,7.17178954663811
Pm1 In1 Pd2,9.483969323265308
Pm1 In1 Pt2,13.01547308528174
Pm1 In1 Rh2,9.999882762206571
Pm1 In3,7.80119421733371
Pm1 Lu1 Al2,6.640942512201026
Pm1 Lu1 In2,8.412804164157736
Pm1 Lu1 Mg2,5.5906979833820944
Pm1 Lu1 Tl2,10.938167709363372
Pm1 Lu1 Zn2,8.074164669648038
Pm1 Lu3,8.960797036109716
Pm1 Mg1,4.880100562881528
Pm1 Mg1 Ag2,7.040459189128903
Pm1 Mg1 Au2,10.539572080300967
Pm1 Mg1 Cd2,6.655552724182621
Pm1 Mg1 Hg2,9.705229627306608
Pm1 Mg1 O3,6.106459600367812
Pm1 Mg1 Rh2,8.334884090488146
Pm1 Mg1 Tl2,8.890354103995604
Pm1 Mg1 Zn2,5.892495700208218
Pm1 Mg2,3.985713709644102
Pm1 Mg2 Sc1,3.783080296453086
Pm1 Mg3,3.4886810742414687
Pm1 Mn3,6.985430470326398
Pm1 N1,7.89350013761704
Pm1 Nd1,6.81899966851447
Pm1 Nd1 Ga2,7.088130280806048
Pm1 Nd1 Hg2,10.221723558007742
Pm1 Nd1 In2,7.420564183401532
Pm1 Nd1 Ir2,12.642247987481122
Pm1 Nd1 Mg2,4.808124537364929
Pm1 Nd1 Ru2,9.462041788587143
Pm1 Nd1 Tl2,9.813829326818237
Pm1 Nd1 Zn2,7.069941158591264
Pm1 Nd3,6.752509599543413
Pm1 Ni2 Sn1,8.897532470898446
Pm1 Ni3,8.51724346063947
Pm1 P3,5.218974520010455
Pm1 Pb1 Au2,12.679882548812891
Pm1 Pd2 Pb1,10.922722391702484
Pm1 Pd3,10.501583906044852
Pm1 Pr1,6.626907645356025
Pm1 Pr1 Hg2,10.083733690757253
Pm1 Pr1 In2,7.321610432483545
Pm1 Pr1 Ir2,12.41717235242663
Pm1 Pr1 Mg2,4.742611267720877
Pm1 Pr1 Tl2,9.634239078547386
Pm1 Pr1 Zn2,6.920475470874112
Pm1 Pr3,6.533428476396892
Pm1 Rh2 Pb1,11.525806110374337
Pm1 Rh3,10.650828328437564
Pm1 Ru1 O3,7.840745527194333
Pm1 S1,3.5547209972719536
Pm1 S2,5.462558212807222
Pm1 S3,4.985659494432242
Pm1 Sb1 Au2,11.771630891088428
Pm1 Sb1 Pd2,9.608794702086316
Pm1 Sb1 Rh2,10.12943719224835
Pm1 Sc3,4.337495120769057
Pm1 Se1,5.222888447326839
Pm1 Se2,6.851652390280671
Pm1 Se3,6.805732163822046
Pm1 Si3,4.972698298701715
Pm1 Sm1,7.087852569358438
Pm1 Sm1 Al2,5.788342043166421
Pm1 Sm1 Ga2,7.335377263748775
Pm1 Sm1 Hg2,10.464468984144156
Pm1 Sm1 In2,7.615862136449457
Pm1 Sm1 Ir2,12.982067242340603
Pm1 Sm1 Mg2,4.980483334810598
Pm1 Sm1 Rh2,9.599660834627407
Pm1 Sm1 Ru2,9.815350951354514
Pm1 Sm1 Tl2,10.06580405870668
Pm1 Sm1 Zn2,7.291893232784623
Pm1 Sm3,7.155926540190884
Pm1 Sn1 Au2,11.914797608565092
Pm1 Sn1 Pd2,9.568020354884784
Pm1 Sn1 Pt2,13.03868854011791
Pm1 Sn1 Rh2,10.07453557360735
Pm1 Sn3,7.680871082138954
Pm1 Ta3,13.786253668887843
Pm1 Tl1 Ag2,10.128361457357672
Pm1 Tl1 Au2,13.208128707864407
Pm1 Tl1 Rh2,11.690545458457429
Pm1 Tl1 Te2,8.078911011455304
Pm1 Tl3,11.204189862327446
Pm1 Tm1,7.990870245441451
Pm1 Tm1 Al2,6.391979970650631
Pm1 Tm1 Cu2,8.278264625347752
Pm1 Tm1 Mg2,5.447034871046193
Pm1 Tm1 Ru2,10.692232616980462
Pm1 Tm1 Tl2,10.746138096139086
Pm1 Tm1 Zn2,7.935631003887613
Pm1 Tm3,8.551344907890787
Pm1 W1 O3,8.90032582576115
Pm1 Y1,5.728275421203533
Pm1 Y1 Al2,4.899133968921679
Pm1 Y1 Cu2,6.827912255575872
Pm1 Y1 In2,6.918651042733247
Pm1 Y1 Ir2,12.14851159611406
Pm1 Y1 Mg2,4.167242229720456
Pm1 Y1 Rh2,8.62189154922538
Pm1 Y1 Tl2,9.416086426692686
Pm1 Y1 Zn2,6.345458525947842
Pm1 Y3,5.085313257264161
Pm1 Zn1 Ag2,8.305450336713898
Pm1 Zn1 Au2,11.82906351142579
Pm1 Zn1 Cu2,8.064359434664476
Pm1 Zn1 Hg2,10.838985133582025
Pm1 Zn1 Rh2,9.75534302979837
Pm1 Zn2 Ag1,8.006925596442548
Pm1 Zn2 Au1,10.140622104002114
Pm1 Zn2 Cd1,7.736062321670125
Pm1 Zn2 Hg1,9.5155365065509
Pm1 Zn3,7.092566820353022
Pm1 Zr1,7.032384107521748
Pm2 Ag1 Au1,9.585993668138675
Pm2 Ag1 Ge1,7.783883269988019
Pm2 Ag1 Hg1,9.22635885308456