Composition,Density
Ho1 Tl1 Pd1,11.7301658852721
Ho1 Tl1 Rh2,12.751262116168244
Ho1 Tl1 S2,6.848068095006081
Ho1 Tl1 Se2,7.458384910620311
Ho1 Tl1 Te2,7.401355495811659
Ho1 Tl3,11.893128944802614
Ho1 Tm1 Ag2,9.6938745377023
Ho1 Tm1 Al2,7.138043600743205
Ho1 Tm1 Cd2,8.999415993955969
Ho1 Tm1 Cu2,9.499999183105292
Ho1 Tm1 Hg2,12.11319353038283
Ho1 Tm1 In2,9.017456248103938
Ho1 Tm1 Mg2,5.951005543551523
Ho1 Tm1 Pd2,10.79097253674249
Ho1 Tm1 Rh2,11.418615699823876
Ho1 Tm1 Ru2,11.63902571505742
Ho1 Tm1 Tl2,11.50872728761194
Ho1 Tm1 Zn2,8.6812218514093
Ho1 Tm3,9.131073593538815
Ho1 Zn1,8.50056188089697
Ho1 Zn1 In1,8.36265421589261
Ho1 Zn1 Pd1,9.505458207554398
Ho1 Zn1 Pd2,10.223973055917345
Ho1 Zn1 Rh2,10.791282083027342
Ho1 Zn1 Si1,7.316957406277925
Ho1 Zn1 Sn2,8.295576634421579
Ho1 Zn2,8.211706250091583
Ho1 Zr1,7.900054297850396
Ho1 Zr1 Co4,9.691925715973037
Ho1 Zr1 Os2,14.1955623974732
Ho1 Zr1 Ru2,10.298589741656862
Ho1 Zr1 Sb1,8.299528602880516
Ho2 Ag1 Au1,11.334004510886986
Ho2 Ag1 Hg1,10.776379306123738
Ho2 Ag1 Ir1,12.17476036174275
Ho2 Ag1 Os1,12.287243643265588
Ho2 Ag1 Ru1,10.47349774395939
Ho2 Ag1 Sb3,0.4102958467316628
Ho2 Al1 Cd1,7.918805157493269
Ho2 Al1 Fe3,8.861017273226176
Ho2 Al1 Ni2,8.451115210130782
Ho2 Al1 Os1,10.754382828310517
Ho2 Al1 Ru1,8.980563756736029
Ho2 Al1 Si2,6.760961616612812
Ho2 Al1 Zn1,7.642642159965987
Ho2 Al3 Fe1,6.795796783947282
Ho2 Al3 Si2,5.840399937424648
Ho2 B4 C1,7.96636788587415
Ho2 Bi1 O2,9.362679118246309
Ho2 Br2 O1,3.8111547566791777
Ho2 C1,8.412835248101727
Ho2 C1 F2,8.55178951673281
Ho2 C1 N2 O2,6.832574538466167
Ho2 Cd1 Hg1,10.34643764686422
Ho2 Cd1 In1,8.856025139102513
Ho2 Cd1 Os1,11.87928811931577
Ho2 Cd1 S4,5.69307989748613
Ho2 Cl2 O1,3.316231814841325
Ho2 Co1 Ge4,8.423167013240521
Ho2 Co1 Ge6,7.85821252595851
Ho2 Co1 Os1,12.50860477122081
Ho2 Co1 Ru1,10.629012747586044
Ho2 Cr2 C3,8.35427040799044
Ho2 Cu1 As3,0.1385908766501258
Ho2 Cu1 Ge4,8.238615535154542
Ho2 Cu1 Ge6,7.745720832590856
Ho2 Cu1 Ir1,12.049689426277398
Ho2 Cu1 O4,8.71777891587583
Ho2 Cu1 Os1,12.187456679992083
Ho2 Cu1 Pd1,9.968260136639596
Ho2 Cu1 Pt1,11.701404036394369
Ho2 Cu1 Rh1,10.137546194284592
Ho2 Cu1 Ru1,10.27263978748741
Ho2 Cu1 Sb3,0.2939403207653395
Ho2 Cu1 Tc1,10.096986749124786
Ho2 Fe1 As2 O1,5.952643296598718
Ho2 Fe1 Ge4,8.356730087386559
Ho2 Fe1 Si2,6.991516680319143
Ho2 Fe1 Si4,6.480208971671528
Ho2 Fe2 Si2 C1,7.927919297977871
Ho2 Ga1 Ag1,8.999012969091796
Ho2 Ga1 Co2,9.45229485398231
Ho2 Ga1 Ni2,9.341679049757367
Ho2 Ga1 Os1,11.768664688036589
Ho2 Ga1 Ru1,9.751534810378962
Ho2 Ga3 Cu1,8.42661927149398
Ho2 Ga3 Fe1,8.480323748824889
Ho2 Ga3 Ni1,8.593873532132301
Ho2 Ge2 O5,8.25644093253575
Ho2 Ge3,7.78818079286086
Ho2 Ge4 Pd1,8.51284584580319
Ho2 Ge6 Pd1,7.972131341716958
Ho2 Ge6 Pt1,8.70145835627635
Ho2 Hf2 O5,10.190946335081634
Ho2 Hg1 Os1,13.53228156268868
Ho2 In1,8.822075101575996
Ho2 In1 Ag1,9.060365624264836
Ho2 In1 Hg1,10.332154604878296
Ho2 In1 Ni2,9.255522745940253
Ho2 In1 Os1,11.78079093210391
Ho2 In3 Cu1,8.48957563970851
Ho2 Ir1 Au1,13.957741419360154
Ho2 Ir1 Pd1,12.670093954572549
Ho2 Ir1 Rh1,13.025910123781305
Ho2 Ir1 Ru1,13.15010592072566
Ho2 Mg1,6.881895983701314
Ho2 Mg1 Al1,6.448323068157201
Ho2 Mg1 Cd1,7.342806399016124
Ho2 Mg1 Ga1,7.305103918261902
Ho2 Mg1 In1,7.428088929586139
Ho2 Mg1 Os1,10.356888158632588
Ho2 Mg1 Ru1,8.53271486969234
Ho2 Mg1 Tc1,8.397524978988695
Ho2 Mg1 Tl1,8.703257512184809
Ho2 Mg2 O5,7.083273292771635
Ho2 Mn1 Ge4,8.147746170915026
Ho2 Mn1 Os1,11.566684745172946
Ho2 Mo2 C3,8.925643477032027
Ho2 Ni1 Ge6,7.897906684053653
Ho2 Ni1 Ir1,12.34849913673741
Ho2 Ni1 Ru1,10.5620245324674
Ho2 Ni1 Sb4,8.485166922420296
Ho2 Ni2 Pb1,10.454814539243465
Ho2 O3,8.013094783542625
Ho2 Os1 Au1,14.074683097706629
Ho2 Os1 Pd1,12.824611213754531
Ho2 Os1 Pt1,14.63285860789209
Ho2 Os1 Rh1,13.116885545989131
Ho2 Os1 Ru1,13.191145970983644
Ho2 Pd1 Rh1,10.892611264854205
Ho2 Pd1 Ru1,10.96694421616114
Ho2 Re2 Si2 C1,10.717846256841254
Ho2 Ru1 Au1,12.304104509542478
Ho2 Ru1 Pt1,12.858564991013274
Ho2 Ru1 Rh1,11.346654072883783
Ho2 S1 O2,7.991776797414694
Ho2 S2 F1,4.42602643603905
Ho2 Sb1 O2,8.187129648103978
Ho2 Se1 O2,8.480123426961264
Ho2 Si1 Ge1,8.150851375986155
Ho2 Si3,6.531547346873062
Ho2 Si3 Pd1,7.42737902694626
Ho2 Si3 Pt3,10.300082888509658
Ho2 Te1 O2,8.477357086863936
Ho2 Te1 S2,5.796847633644764
Ho2 Te3,0.3594257795291503
Ho2 Ti1 Ge2,6.753348951951359
Ho2 Tl1 Ag1,10.431242808949095
Ho2 Tl1 Cd1,10.127671671577843
Ho2 Tl1 Hg1,11.603458046365954
Ho2 Tl1 In1,10.041209960417506
Ho2 Tl1 Zn1,10.022668027396314
Ho2 Zn1 Ag1,9.012596882872437
Ho2 Zn1 Au1,10.758384814819408
Ho2 Zn1 Cu1,8.912332326481025
Ho2 Zn1 Cu1 Si2,7.5076362809846735
Ho2 Zn1 Ga1,8.654473937777231
Ho2 Zn1 Hg1,10.21334238953454
Ho2 Zn1 In1,8.627981481309124
Ho2 Zn1 Ir1,11.55868803220185
Ho2 Zn1 Os1,11.786133296375848
Ho2 Zn1 Pd1,9.619392533822932
Ho2 Zn1 Pt1,11.35676745297247
Ho2 Zn1 Rh1,9.864684693413714
Ho2 Zn1 Ru1,9.907796738155476
Ho2 Zn1 Tc1,9.807349031515976
Ho3 Al1 C1,7.746664149521638
Ho3 Al1 N1,8.331873790202074
Ho3 As1,9.199832799998434
Ho3 Bi1,10.240607626633356
Ho3 Co2 Ge4,8.989834238352966
Ho3 Er1,8.764865192255131
Ho3 Er3 Mn1 Bi2,9.728984669078434
Ho3 Ga1,9.049166337421344
Ho3 Ga1 C1,6.524337740053711
Ho3 Hg1,10.526785249054692
Ho3 In1,8.96306926511091
Ho3 In1 C1,6.005876709079884
Ho3 In1 N1,9.429152943267123
Ho3 In4 Co2,8.82894914553218
Ho3 Lu1,8.99922807230939
Ho3 Mg1,7.3793761098499875
Ho3 Mn3 Ga2 Ge1,8.264704363179666
Ho3 Mn3 Ga2 Si1,7.980097089241849
Ho3 P1,8.945095541270044
Ho3 Pb1,10.08522179835247
Ho3 Pb1 C1,10.152403130042526
Ho3 Sb1,9.229658441952203
Ho3 Sc1,7.537640306212432
Ho3 Si1,8.835016369288002
Ho3 Sn1 C1,5.982377406093978
Ho3 Tl1 C1,6.800822018465468
Ho3 Tm1,8.827903585962325
Ho3 Zr1,8.488406513589505
Ho4 Si1 Ge3,8.44418202890084
Ho4 Si3 Ge1,7.864144742327949
Ho5 Mg1,7.818410709791133
Ho6 Bi2 Rh1,9.97675011281646
Ho6 Co1 Bi2,9.865287017907953
Ho6 Co1 Te2,9.085796526900044
Ho6 Fe1 Bi2,9.806551620786502
Ho6 Fe1 Sb2,8.936514120423876
Ho6 Mn1 Bi2,9.56044553451306
Ho6 Mn1 Te2,8.936399091646013
I1,4.074684630977836
I1 Br1,3.414813936562111
I1 Br2,3.536254703780893
I1 Cl1 O3,4.915834546789944
I1 Cl2,2.38308632842047
I1 Cl3,2.479112138530346
I1 N1,6.635752572846724
I1 N2,2.3038774355160685
I1 N2 O6,3.245418742704273
In1,6.741290216018945
In1 Ag1,8.549371644466563
In1 Ag1 Au2,1.0324170466738176
In1 Ag1 Ge1 Se4,5.260498372037042
In1 Ag1 I2,6.035325179697333
In1 Ag1 O2,6.843860830392646
In1 Ag1 Pd2,0.784096051621511
In1 Ag1 S2,4.6576177857701815
In1 Ag1 Se1 S1,5.082093430333142
In1 Ag1 Se2,5.377331959918373
In1 Ag1 Sn1 Se4,5.246057137515921
In1 Ag1 Te1 Se1,5.530476299323157
In1 Ag1 Te2,5.632968518028116
In1 Ag2 Au1,0.8663034252719107
In1 Ag2 Bi1 Se4,7.343880722641314
In1 Ag2 Sb1 Se4,6.745519963623715
In1 Ag3,9.163098286508887
In1 Ag4,9.419328775062285
In1 As1,5.320916908680534
In1 As1 F6,3.809600996850568
In1 As1 O3,6.488005852930813
In1 As1 Pd5,10.251846652598044
In1 As1 Pt5,16.34217284695465
In1 Au1 O2,9.249930364453888
In1 Au3,14.955510930311512
In1 B1 N2,4.976543772158388
In1 Bi1,6.666039206900408
In1 Bi1 O3,8.497249279925953
In1 Bi1 Pb2,0.8558607174762815
In1 Bi1 Se3,6.346121737459678
In1 Bi2 S4 Br1,6.015850800610107
In1 Bi2 S4 Cl1,5.98980957658576
In1 Bi3,9.327602869002291
In1 Br1,4.737182879210383
In1 Br1 O1,5.104885409975443
In1 Br3,4.176095580222138
In1 C1,6.071845954656573
In1 C1 N2,4.226410349299892
In1 C3,5.669887979747228
In1 C6,1.611273229978998
In1 Cl1,4.002542522245486
In1 Cl1 O1,4.284666259431109
In1 Cl3,2.6549168813733983
In1 Co1 Si2,6.012925152512156
In1 Co2 N2,6.658699118534048
In1 Co3 N1,8.874607555449444
In1 Co3 Sn1 S2,7.083440408508428
In1 Cu1,7.709053202695373
In1 Cu1 Au2,1.099369680058717
In1 Cu1 Ge1 S4,3.9271198662195546
In1 Cu1 Ge1 Se4,5.0267899591838905
In1 Cu1 Ni1,9.02025438951869
In1 Cu1 Ni2,0.7012513129574405
In1 Cu1 O2,6.107406587631357
In1 Cu1 O3,6.3993156993368725
In1 Cu1 Pd2,10.276937314676603
In1 Cu1 Pt2,14.743145422176786
In1 Cu1 Rh2,0.7879883443876778
In1 Cu1 S2,4.630719679480314
In1 Cu1 Se1 S1,5.13309077937662
In1 Cu1 Se2,5.476085360998815
In1 Cu1 Sn1 Se4,5.0924904833619005
In1 Cu1 Te1 Se1,5.626674679557064
In1 Cu1 Te2,5.750350673235142
In1 Cu2,8.708136289210136
In1 Cu3,8.86267096075904
In1 Cu3 Hg1 Se4,6.185615039696388
In1 Cu3 N3,7.075040721876402
In1 Cu3 Pb1 Se4,5.7989629644803085
In1 Cu4,8.85644681711183
In1 F3,4.44509293333371
In1 Fe1 As1,6.581245569914691
In1 Fe1 Co2,8.933954522063628
In1 Fe1 Cu2 Se4,5.465864008954997
In1 Fe1 Cu2 Te4,5.837356642712805
In1 Fe1 Ni1,8.648176738254584
In1 Fe1 Rh2,0.7816422773934327
In1 Fe2 Cu1 Se4,5.240168069212066
In1 Fe2 N2,6.6866737834302
In1 Fe2 O4,5.535574771862777
In1 Ga1 Ag2 S4,4.646689907511783
In1 Ga1 Ag2 Se4,5.428349927993341
In1 Ga1 Ag2 Te2 Se2,5.5577344207071535
In1 Ga1 Ag2 Te4,5.664406988492665
In1 Ga1 As2,5.195681428835323
In1 Ga1 Co1 S4,4.244654556702284
In1 Ga1 Cu1 Ag1 Se4,5.446100613532176
In1 Ga1 Cu1 Ag1 Te4,5.713103768936387
In1 Ga1 Cu1 O4,6.136479969534531
In1 Ga1 Cu2 Se4,5.4706773906132415
In1 Ga1 Cu2 Te2 Se2,5.560215041427205
In1 Ga1 Cu2 Te4,5.836155428718516
In1 Ga1 N2,6.353213118204518
In1 Ga1 P2,4.333018250981698
In1 Ga1 Pd2,0.7465488715723391
In1 Ga1 Sb2,5.31585510274395
In1 Ga1 Se2,5.302112914857207
In1 Ga1 Te2,5.831028077049496
In1 Ga2 Sn1,0.6503010371293553
In1 Ga3,6.260936785590108
In1 Ga3 N4,6.160006043552587
In1 Ge1 Cl3,2.8146712194019576
In1 Ge1 Te2,6.337861931504774
In1 Ge2 Sb1 Te5,6.03027848350903
In1 Ge3,6.301116567996549
In1 H1,5.594960866758251
In1 H1 O2,5.912304275924416
In1 Hg1,9.485034218796924
In1 Hg1 Pb2,1.0203740094064706
In1 Hg1 Te2,5.92274708706879
In1 Hg1 W2,15.629890965294951
In1 Hg2 Bi1,0.971946573007927
In1 Hg2 Pb1,0.89273908387513
In1 Hg3,10.399067054055196
In1 I1,5.133000138027742
In1 I2 Br1,4.387681839488553
In1 Mo1 S2,5.563733853515824
In1 N1,6.628100893608626
In1 N3,5.969672964061151
In1 Ni1,8.211460739203861
In1 Ni2,9.136436439722583
In1 Ni2 Au1,0.973074852745716
In1 Ni3,8.789728317989644
In1 Ni3 N1,8.70723308401039
In1 Ni3 Sb1,8.661717232745277
In1 Ni4,9.191845821189078
In1 O1,6.054308349212976
In1 O1 F2,4.330654380806538
In1 O2,6.256203921725467
In1 Os1 O3,9.346249880328054
In1 P1,4.569158099831786
In1 P1 F3,2.7185759415791555
In1 P1 Pd5,10.042579310468202
In1 P1 Pt5,16.446931791828828
In1 P1 S4,2.9474282652179578
In1 P2 Pb1,7.125155458312336
In1 P3,4.156656692338903
In1 Pb1,8.81947142577353
In1 Pb1 Cl3,3.725507596321793
In1 Pd1,10.133885637642187
In1 Pd2 Au1,12.577837435650618
In1 Pd3,10.541684375097049
In1 Pd5 Se1,10.08609291084627
In1 Pt1,13.704896045009546
In1 Pt1 O3,9.081170067199809
In1 Pt3,17.444763839461217
In1 Pt3 C1,15.31024168075836
In1 Re1 Ge1,10.144492247474409
In1 Rh1,10.594012453164604
In1 Rh3,11.18178364320932
In1 Rh3 Pb1 S2,8.645751787765468
In1 Ru3,11.164201186805668
In1 S1,4.771415569597189
In1 S2,3.964820634144944
In1 Sb1,5.368657231393549
In1 Sb1 O3,6.825218971911616
In1 Sb2,0.1375829385914826
In1 Sb3,7.180062203492895
In1 Se1,4.828159571413542
In1 Se2,6.2026518154809605
In1 Se2 N1,5.181074504160664
In1 Si1 C1 N1,5.49407732791079
In1 Si1 Ir1,9.2779248923405
In1 Si1 O3,6.449727694958696
In1 Si1 Pt5,16.231564350813752
In1 Si1 Te3,3.5529523916390904
In1 Sn1 Br3,3.7324072606655
In1 Sn1 Cl3,3.04198558387436
In1 Sn1 Hg2,0.8557016652312814
In1 Sn1 Te2,6.36982665353929
In1 Sn2 Te3,6.335460875649405
In1 Sn3,7.000770595437601
In1 Sn3 Se4,5.906032092551364
In1 Sn4,6.9444840187585255
In1 Tc3,10.68182552973597
In1 Te1,5.986866155889604
In2 Ag1,7.259151773396824
In2 Ag1 Se3 I1,5.074290400060908
In2 Ag1 Se4,5.207535637208343
In2 Ag1 Te3 Br1,6.137387253693651
In2 Ag1 Te3 Cl1,5.944673640731726
In2 Ag1 Te3 I1,5.156439080417683
In2 As1 P1,4.956803231319121
In2 As1 Se1,4.828375562334803
In2 Au1,9.450570171425827
In2 Au3,12.221819300881926
In2 Bi1,8.030227006356316
In2 Co1 S2 O2,4.793754927731738
In2 Co3 S2,6.97554877424968
In2 Cu1,7.391910912802436
In2 Cu1 Ag1 S4,4.677356908847744
In2 Cu1 Ag1 Se4,5.471385954911491
In2 Cu1 Ag1 Te2 Se2,5.638061141463206
In2 Cu1 Ag1 Te4,5.709310701120068
In2 Cu1 As1 Se2,5.419845249616992
In2 Cu1 O4,7.07633700944431
In2 Cu1 Se3 Br1,4.962900321392075
In2 Cu1 Se3 I1,5.084210090615466
In2 Cu1 Se4,5.28519397698197
In2 Cu1 Te3 Br1,5.233261971577469
In2 Cu1 Te3 Cl1,4.9967660771133495
In2 Cu1 Te3 I1,5.392012093973619
In2 Ga1 As3,5.24311635644339
In2 Ga1 Hg1,0.70384887689947
In2 Ga1 S4,4.042506494175424
In2 Ga1 Sn1,0.5097737173787009
In2 Ge1 B1,6.522425436468938
In2 Hg1 Bi1,0.8515784976136714
In2 Hg1 Pb1,0.8086101715758113
In2 Hg1 Se4,5.802867342173684
In2 Hg1 Te4,5.971593801823707
In2 Ir1 Rh1,1.253040803546003
In2 Ni3 S2,6.731044014173756
In2 Ni3 Se2,7.4894109944961
In2 Ni6 C1,8.92408003556589
In2 Pd1 Pt1,1.0729144805215287
In2 Pd1 Rh1,0.7757931313501605
In2 Pt1,9.513061703452276
In2 Re1 B1,10.026853095241805
In2 Rh3 S2,7.77927234672973
In2 S3,3.8022748510055817
In2 Sb1,6.9256734283886985
In2 Sb1 As1,5.3590987332702005
In2 Se3,5.318409108605309
In2 Sn1 Hg1,0.7486153805827451
In2 Sn1 Pb1,0.5614768924349937
In2 Te1 As1,4.932028049459638
In2 Te3,5.255434256988888
In3 Ag1,7.553612055438839
In3 As1,6.830188928300799
In3 As1 Se3,4.934964354298386
In3 Au1,8.92752640909037
In3 B1,6.504315042627336
In3 Bi1,7.686864791273464
In3 Bi1 Te4,6.833429400679728
In3 Cl1,5.497512444385157
In3 Co1,7.810488567657834
In3 Cu1,7.112819408787028
In3 Cu1 As2 Se2,5.451675051557251
In3 Cu1 Se5,5.166304366387589
In3 Ga1,6.726578997941338
In3 Ga1 N4,6.508118025913194
In3 Ga1 Te4,5.894895268702065
In3 Ge1,6.786615139062064
In3 Hg1,1.4235835943750272
In3 Ni1,7.738776719306152
In3 Ni2,8.417152025935957
In3 Pb1,7.81976681474693
In3 Pd1,8.308466996738536
In3 Pd2,8.879013932429173
In3 Pt1,10.218705060804764
In3 Pt2,11.69412694437626
In3 Pt5,13.461339711197114
In3 S1,5.910968235015312
In3 Sb1,6.840949457970865
In3 Sb1 Te2,6.558433095036426
In3 Sb1 Te4,6.46430715143222
In3 Se1,6.342652951905388
In3 Si1,6.348106535641657
In3 Sn1,6.954608184557911
In3 Sn1 Au4,11.716340005364124
In3 Te4,6.283158492725109
In4 As1 P3,4.786803125546356
In4 As3 P1,5.143355593936569
In4 As3 Se1,5.053796082324808
In4 Bi1,7.685874047774097
In4 Ge1 Sb2 Te1,5.308440187486162
In4 Pb1,7.686302203784317
In4 S3 N2,5.383963905855823
In4 Sb1 Te3,6.574538206093196
Ir1,3.1784942655438524
Ir1 Br3,5.928656696405218
Ir1 Br6 N2,4.265289956385055
Ir1 Br6 O2,5.291679470518799
Ir1 C1,13.624501479679608
Ir1 C2,10.251680907895926
Ir1 C4,7.66288247804574
Ir1 Cl2,7.256298704265355
Ir1 Cl3,3.616756857432607
Ir1 F3,8.025758447827224
Ir1 I1,10.04584802783706
Ir1 I3,6.345170581534981
Ir1 N1,13.659321162582431
Ir1 N2,11.715738756912796
Ir1 N2 Cl6,3.0657473726209834
Ir1 N4 Cl4,2.92166018561708
Ir1 O2,9.882715940690662
Ir1 O3,7.321746567413168
Ir1 Os1,21.97246368698792
Ir1 Os1 Ru1,18.67772905995224
Ir1 Os1 W1,17.476890095442464
Ir1 Os2 Br1,17.308104275283384
Ir1 Pb1,15.314136400821956
Ir1 Pb1 Br1,9.900044118919352
Ir1 Pd1,16.69690933191262
Ir1 Pd3,14.062155407871003
Ir1 Pt1,21.28042452044588
Ir1 Pt3,20.927996939625864
Ir1 Rh1,17.02618800921398
Ir1 Rh3,14.49152436827892
Ir1 Ru1,17.094651631723746
Ir1 Ru3,14.63181570566001
Ir1 Se1,10.48121899287518
Ir1 W1,20.422634894880503
Ir2 Ru2 O5,11.673507669566408
Ir3 F1,17.886031889285753
Ir3 Os1,21.976455121748085
Ir3 Pb1,19.55773199139217
Ir3 Rh1,19.48140265952555
Ir3 Ru1,19.56268603102133
Ir3 Se1,17.705058103376462
Ir3 W1,21.33034366027029
Ir4 Os1,21.95140628869485
Ir4 W1,21.26848501446833
K1,0.1495986407599423
K1 Ag1 Br3,4.037557120362439
K1 Ag1 C2,2.8252965291769754
K1 Ag1 Cl3,3.105240826810632
K1 Ag1 F3,3.981675274542474
K1 Ag1 O1,4.677461403158296
K1 Ag1 O2,3.5548989387187646
K1 Ag1 O3,4.392837719467964
K1 Ag1 Se1,4.626412453694586
K1 Ag2 As1 O4,5.02647328165964
K1 Ag2 P1 S4,3.6503124457238334
K1 Ag2 Sb1 S4,3.9210859214592033
K1 Al1 F4,2.7772306688069914
K1 Al1 H3,1.8178167292606304
K1 Al1 O2,2.489069746339283
K1 Al1 O3,3.275849264581703
K1 Al1 Si1 O4,2.194678805924081
K1 Al1 Te2,3.9684840711126808
K1 As1,2.358093660670034
K1 As1 F6,3.0632532386476443
K1 As1 O3,4.738502659343299
K1 As2 Ir2,8.56633319404253
K1 As2 Rh1,4.588855016297508
K1 As2 Rh2,6.01519799614115
K1 As2 Ru2,5.942880150211619
K1 Au1 Br3,4.980206611863565
K1 Au1 C2,4.368425406395377
K1 Au1 Cl3,4.190929775408473
K1 Au1 F3,5.396258273551395
K1 Au1 F6,4.374116701796298
K1 Au1 O2,5.400401543852958
K1 Au1 O3,6.562651688367877
K1 Au1 S1,4.980937326489076
K1 Au1 Se1,5.363414567976471
K1 Au1 Se2,5.569335960381716
K1 Au5,12.726155189080208
K1 B1,1.325158779962439
K1 B1 F4,1.977471286311005
K1 B1 H4,1.1703781371330957
K1 B1 Ir2,12.33583951667935
K1 B6,2.2888065863145344
K1 Ba1 Ag2 Te4,5.744128448665666
K1 Ba1 Au2,0.6158420245174586
K1 Ba1 Hg2,0.5107305133177036
K1 Ba1 N1,2.9892899063598137
K1 Ba1 O3,2.956884365883196
K1 Ba1 P1,3.44868216887656
K1 Ba1 Sb1,3.9659301933515327
K1 Ba1 Sn1,3.726506544638537
K1 Ba2 Re1,5.570450695196459
K1 Ba3,2.7738166159402726
K1 Be1 O3,2.9747044245727032
K1 Be1 Pt1,5.835644872635688
K1 Be2 B1 O3 F2,2.292830844916
K1 Bi1 O2,5.735481268350362
K1 Bi1 O3,6.252348761231978
K1 Bi1 Pb1,6.41980956088128
K1 Bi1 S2,4.617977851621011
K1 Bi1 Se2,5.494115875825066
K1 Bi2,6.853919236358367
K1 Bi3,8.474628598700678
K1 Br1,2.624472422104685
K1 Br1 O3,3.0090501228091187
K1 Br3,3.330039395962333
K1 C1,1.4348229495835734
K1 C1 N1,1.544951842951178
K1 C1 N1 O1,1.9832181444681287
K1 C1 N2,1.8460189803652995
K1 C1 S1 N1,1.7883536165684395
K1 C2,1.40353378563995
K1 C2 I1 N2,2.2587972642200183
K1 Ca1 Bi1,3.812705901447064
K1 Ca1 Br3,2.829701269335993
K1 Ca1 C1 O3 F1,2.52322384416863
K1 Ca1 Cl3,1.94888213557156
K1 Ca1 F3,2.5118832221378504
K1 Ca1 N1,1.8664017417384693
K1 Ca1 Ni2,3.7357024398834895
K1 Ca1 O3,2.2145150019717708
K1 Ca3,1.3892548871069084
K1 Cd1 As1,4.379049486302836
K1 Cd1 F3,3.8731159479674457
K1 Cd1 N1,3.0089603670560745
K1 Cd1 N3,3.3735225210450044
K1 Cd1 O3,4.053050969826186
K1 Cd1 Sb1,4.5844126601630215
K1 Cd3,5.2241015760713765
K1 Cd4 As3,5.381324758005404
K1 Cd4 P3,4.787312235696754
K1 Ce1 F4,4.092858047914171
K1 Ce1 S2,3.555894188277155
K1 Ce3,5.721001578267972
K1 Cl1,1.9035704058183407
K1 Cl1 O2,2.2817920929189763
K1 Cl1 O3,2.28265342975124
K1 Cl1 O4,2.072555896070192
K1 Cl3,2.032776402422387
K1 Co1,2.81046576037137
K1 Co1 Cu1 S2,3.954907239262404
K1 Co1 Cu3 Se4,4.591977101029551
K1 Co1 F3,3.7207903201146735
K1 Co1 O2,3.453999686409289
K1 Co1 O3,4.170820658065728
K1 Co2 As2,5.174317316272827
K1 Co2 O4,3.736656587109624
K1 Co2 P2,4.030573918503558
K1 Co2 S2,4.1162133278944575
K1 Co2 Se2,5.160122617036412
K1 Cr1 Cl3,2.6619976931868194
K1 Cr1 F3,3.1896482189467568
K1 Cr1 F6,2.8045523525901825
K1 Cr1 N1,3.3301192437946097
K1 Cr1 O2,1.4366962273532264
K1 Cr1 O3,4.00124031772841
K1 Cr1 S2,3.115617101881636
K1 Cr1 Sn1 S4,3.188975967264927
K1 Cr2 S4,2.808915152933426
K1 Cu1 C2,2.2452960498941894
K1 Cu1 Cl3,3.026210304633762
K1 Cu1 F3,3.936041074451996
K1 Cu1 I1 O6,3.7904372006653473
K1 Cu1 N1,2.9498868795414657
K1 Cu1 O1,3.890884236679333
K1 Cu1 O2,3.083444909022186
K1 Cu1 S3,3.0204316923433856
K1 Cu1 Se1,4.037554719834466
K1 Cu1 Te1,4.3453572899831965
K1 Cu1 Te1 O6,3.86993248022208
K1 Cu2 Ge1 S4,3.609407459192413
K1 Cu2 Se2,4.951493822914075
K1 Cu3 Ge1 Se4,4.317335250483607
K1 Cu3 Ni1 Se4,4.552505350050786
K1 Cu3 Pb1 Se4,4.770309255545782
K1 Cu3 Si1 Se4,4.140256187551344
K1 Cu3 Sn1 Se4,4.450020720334678
K1 Cu4 As2,5.764126978299798
K1 Cu4 S3,4.580572272795164
K1 Cu4 Sb2,6.124623823110998
K1 Cu4 Se3,5.554192308938666
K1 Dy1 O2,5.897333196855733
K1 Dy1 O3,4.644740792753513
K1 Dy1 S2,4.208709486326338
K1 Er1 O2,6.156217110454385
K1 Er1 O3,4.869744499362977
K1 Er1 S2,4.363766561872534
K1 Er1 Te2,5.37410495093269
K1 Eu1 Cu2 Te4,6.142062997300595
K1 Eu1 O2,5.315355312793618
K1 Eu1 S2,3.7745280335243385
K1 Eu3,3.9879050876872006
K1 F1,2.4182732829403464
K1 F2,1.984440595835843
K1 Fe1,2.292708028540026
K1 Fe1 As2,4.059369940634062
K1 Fe1 Cu1 S2,3.98653219147357
K1 Fe1 Cu1 Se2,4.97713491768129
K1 Fe1 F3,3.491201958354769
K1 Fe1 N1,3.992552967159879
K1 Fe1 P1,3.191725826044459
K1 Fe1 S2,2.681376897659023
K1 Fe1 Se1 S1,3.2232915968326017
K1 Fe1 Se2,3.770900773265081
K1 Fe1 Tc2,7.640121227874218