Composition,Density
Cd1 Pt3,17.454566131382364
Cd1 Rh1 F6,4.642049789095432
Cd1 Rh1 O3,7.086137227330518
Cd1 Rh2 Pb1,0.8780682933609638
Cd1 Ru1 O3,7.1630476902911004
Cd1 S1,2.582691319267617
Cd1 Sb1,7.054421793456101
Cd1 Sb1 Au1,9.587782523444424
Cd1 Sb1 Rh2,0.8462556252163537
Cd1 Sb2 O6,6.201169073645866
Cd1 Sb3,7.364950658554038
Cd1 Se1,5.300489339037397
Cd1 Si1 As2,4.851958749143242
Cd1 Si1 N2,5.778336817852801
Cd1 Si1 O3,6.598592705861918
Cd1 Si1 P2,3.8695810812588434
Cd1 Sn1,7.3379720387002525
Cd1 Sn1 As2,5.356919475295219
Cd1 Sn1 Au1,9.299273601941351
Cd1 Sn1 F6,4.363477842890432
Cd1 Sn1 O3,6.938980318308384
Cd1 Sn1 P2,4.634438610526407
Cd1 Sn1 Pd2,0.8183470871147239
Cd1 Sn1 Rh2,10.698695917724676
Cd1 Sn1 Sb2,5.43626545738967
Cd1 Sn1 Te2,6.525161244707156
Cd1 Sn3,7.135838811644347
Cd1 Te1,5.466196640095241
Cd1 Te2 Pb1,7.396679632865625
Cd2 Ag1 Au1,11.236428352176697
Cd2 Ag1 Pd1,0.7306289629398811
Cd2 Ag1 Pt1,0.8828460773536277
Cd2 Ag1 Rh1,9.97844279495026
Cd2 Cu1 Pt1,0.9041617529758949
Cd2 Cu1 S2 O2,4.212430075891629
Cd2 Ga1 Ag1 Se2 S2,4.907600824512129
Cd2 Ga1 Ag1 Se4,5.247933109862513
Cd2 Ga1 Cu1 S4,4.471012139038889
Cd2 Ga1 Cu1 Se4,5.375537964025224
Cd2 Ga1 Cu1 Te4,5.6465973943476
Cd2 Hg1,9.769112416872575
Cd2 In1 Ag1 S4,4.61730834864954
Cd2 In1 Ag1 Te4,5.544730592384643
Cd2 In1 Bi1,0.7403803405416477
Cd2 In1 Cu1 Se4,5.398914615119331
Cd2 In1 Cu1 Te4,5.638496463737478
Cd2 P1,4.284324089593372
Cd2 Pd1 Pt1,0.9455709149661246
Cd2 Pd1 Rh1,10.419910955003704
Cd2 Pt1 Au1,1.044142312738639
Cd2 Pt1 Rh1,12.534876847622842
Cd2 Rh1 Au1,0.9569389331003976
Cd2 S1,5.399692565812861
Cd2 Se1 S1,4.97517166973759
Cd2 Sn1 Ge1 As4,5.318543451345686
Cd2 Te1 S1,5.139109329047404
Cd2 Te1 Se1,5.414084395173431
Cd3 Ag1,8.755554376126348
Cd3 As1,7.65951293391474
Cd3 As1 I3,4.769259644547406
Cd3 Au1,10.261359943527848
Cd3 B1,7.752724706232261
Cd3 Bi1,8.784127916601182
Cd3 C1,7.98596294221279
Cd3 Fe1,8.557608378189368
Cd3 Fe1 S4,4.430833706938903
Cd3 Fe1 Se4,5.19643944526099
Cd3 Ga1,7.558816346467995
Cd3 Ge1,7.594430154875318
Cd3 Hg1,9.329053995891355
Cd3 In1,7.7371114087281025
Cd3 Ir1,11.726129939325965
Cd3 Ni1,9.001219706309797
Cd3 Os1,11.632756899183695
Cd3 P1,7.208131028223284
Cd3 P1 I3,4.718291826879054
Cd3 Pb1,8.757787265965579
Cd3 Pd1,9.48636861680922
Cd3 Pt1,11.462223324279702
Cd3 Se1,6.814105615987865
Cd3 Te1,7.370311565531026
Cd4 Te1 Se3,5.384922552798234
Cd4 Te3 Se1,5.436691134281373
Ce1,8.471048998049655
Ce1 Ag1,7.915179122021933
Ce1 Ag1 As2,7.70323726738519
Ce1 Ag1 Au2,11.965648157378228
Ce1 Ag1 Ge1,7.771607730093778
Ce1 Ag1 Hg2,11.218513954408872
Ce1 Ag1 Pb1,6.484252422929614
Ce1 Ag1 Sb2,7.995415957529628
Ce1 Ag1 Sn1,7.957856236260747
Ce1 Ag2,8.489029111948469
Ce1 Ag2 Ge2,8.020900064321092
Ce1 Ag3,8.43739399140082
Ce1 Al1,5.597950154966475
Ce1 Al1 Ag2,7.422763959969616
Ce1 Al1 Au1,8.933071979389489
Ce1 Al1 Co1,6.699908490531008
Ce1 Al1 Co4,7.707383900379704
Ce1 Al1 Cu1,6.432500137311189
Ce1 Al1 Cu2 Ni2,7.464233540287021
Ce1 Al1 Cu4,5.523391455320003
Ce1 Al1 Ga1,5.842169403352365
Ce1 Al1 Ge1,5.918724649119935
Ce1 Al1 Ir1,10.026193325535337
Ce1 Al1 Ni1,6.768834435798334
Ce1 Al1 Ni4,7.553467317546183
Ce1 Al1 O2,6.362527841428888
Ce1 Al1 O3,6.580870228140167
Ce1 Al1 Pd1,7.296181431037607
Ce1 Al1 Si1,5.005790027083184
Ce1 Al1 Si2,4.5670573199326
Ce1 Al2,5.12439524065453
Ce1 Al2 Ag3,7.143486499565983
Ce1 Al2 B1 Ru2,6.848580141772348
Ce1 Al2 Cu3,6.480692237801313
Ce1 Al2 Ga2,5.617307031049974
Ce1 Al2 Ge2,5.139248484772935
Ce1 Al2 Ni1,5.763038467991295
Ce1 Al2 Pd5,9.141554213337376
Ce1 Al2 Pt1,8.073957559515906
Ce1 Al2 Pt3,11.902165224777765
Ce1 Al2 Si2,3.9670243483157823
Ce1 Al2 Zn2,5.588147919001861
Ce1 Al3,4.439380259808812
Ce1 Al3 Ag1,5.242264822129902
Ce1 Al3 Au1,6.869397024781489
Ce1 Al3 Cu1,4.951197712519546
Ce1 Al3 Ni2,5.752872956795126
Ce1 Al3 Pd1,5.622127336199421
Ce1 Al3 Pd2,6.589677595691636
Ce1 Al3 Pt1,7.229821615241062
Ce1 Al3 Pt2,9.265288691487656
Ce1 Al4,4.040686171206247
Ce1 Al4 Cu2 Si1,4.78804346269508
Ce1 Al4 Ge2 Au1,5.9332363714571565
Ce1 Al4 Si2 Ir1,5.727919756105056
Ce1 Al4 Si2 Rh1,4.743904383363834
Ce1 Al5 Ni2,4.90176543787647
Ce1 Al6 Pd1,4.425983899869115
Ce1 As1,6.691140693062828
Ce1 As1 Pd1,8.065720846898234
Ce1 As1 Rh1,8.643259822197944
Ce1 As1 Ru1 O1,8.086423088491951
Ce1 As1 S1,6.278007675452942
Ce1 As2 Au1,9.453123191777642
Ce1 As2 Pd2,8.65129056347135
Ce1 As3,7.297604951499611
Ce1 Au1,10.611335732369565
Ce1 Au2,12.876149258213546
Ce1 Au3,13.881868495589478
Ce1 B1 Pd3,9.28471824771372
Ce1 B1 Pt3,14.823042502431155
Ce1 B1 Rh3,9.983807634140344
Ce1 B2 Ir2 C1,12.006185414303088
Ce1 B2 Ir2 Rh1,13.021031782742774
Ce1 B2 Ir3,14.76823951082409
Ce1 B2 Pd2 C1,8.158696593173493
Ce1 B2 Pt2 C1,11.772380988801745
Ce1 B2 Rh2 C1,8.284198290561598
Ce1 B2 Rh3,9.605648801161704
Ce1 B2 Ru2 Rh1,9.675784653080736
Ce1 B2 Ru3,9.613024819862677
Ce1 B6,4.886744582592828
Ce1 Be1 Al3,4.162448910446795
Ce1 Be1 O3,7.013334961429547
Ce1 Bi1,8.359078861896002
Ce1 Bi1 Au2,12.698742596230566
Ce1 Bi1 Pd1,9.274031508788498
Ce1 Bi1 Pt1,11.126616749839402
Ce1 Bi2 Au1,11.41549554326565
Ce1 Bi2 Se1 O4,8.54290980117743
Ce1 Bi3,10.34828026845812
Ce1 Br1 O1,5.600600400044033
Ce1 Br3,5.002318537430951
Ce1 C1,7.218980231461603
Ce1 C1 O1,6.202310008147961
Ce1 C2,6.0755035114149685
Ce1 Cd1,7.345266608973608
Ce1 Cd1 Ag2,8.527271862720372
Ce1 Cd1 As1 O1,7.110783300892305
Ce1 Cd1 Au1,10.146201206112504
Ce1 Cd1 Au2,11.917680123414376
Ce1 Cd1 Cu1,7.887288723623967
Ce1 Cd1 Hg2,10.819782947892582
Ce1 Cd1 In1,7.667954007841601
Ce1 Cd1 Ni4,9.159491880441074
Ce1 Cd1 Pd1,8.6549677733418
Ce1 Cd1 Pt1,10.760753170790975
Ce1 Cd2,7.240910978953218
Ce1 Cd2 Ag1,8.262174012056702
Ce1 Cd2 Cu1,8.157355886204297
Ce1 Cd3,8.063535672946301
Ce1 Cl1 O1,5.564222212095842
Ce1 Cl3,3.837583637008116
Ce1 Co1 C2,7.309879478822295
Ce1 Co1 Cu1 Si2,6.6371762891981625
Ce1 Co1 Ge1,7.824969733488121
Ce1 Co1 Ge1 H1,7.59518275107013
Ce1 Co1 Ge2,7.817427882277686
Ce1 Co1 Ge2 Ru1,8.423514636528488
Ce1 Co1 Ge3,7.612299927607442
Ce1 Co1 Rh1,10.158150207156508
Ce1 Co1 Sb2,7.997794648531576
Ce1 Co1 Si1,6.903532094616366
Ce1 Co1 Si2,6.304809401005597
Ce1 Co1 Si2 Rh1,7.375387093693445
Ce1 Co1 Si3,5.859503585184806
Ce1 Co2,9.701049230746174
Ce1 Co2 As2,8.161931344298521
Ce1 Co2 B2 C1,7.357413774338385
Ce1 Co2 Ge2,8.087177795479233
Ce1 Co2 P2,7.372242014712393
Ce1 Co2 Si1 B1,7.3139742234087635
Ce1 Co2 Si2,6.866647731159739
Ce1 Co3 B2,8.462285041176822
Ce1 Co3 Cu2,8.65929203354822
Ce1 Co4 Cu1,8.590922330747699
Ce1 Co5,8.69173039588861
Ce1 Cr1 O3,6.687745320618523
Ce1 Cr2 B6,6.137492649249031
Ce1 Cr2 Si2,6.022138117814534
Ce1 Cr2 Si2 C1,6.204313549588989
Ce1 Cu1,7.436828834996823
Ce1 Cu1 Ge1,7.418167337162982
Ce1 Cu1 Ge1 H1,7.44713744440942
Ce1 Cu1 Ge2,7.275706823754683
Ce1 Cu1 N2,7.681153505847588
Ce1 Cu1 Ni1,8.354635033074917
Ce1 Cu1 O3,7.421349221597679
Ce1 Cu1 Pb1,9.479379847246404
Ce1 Cu1 Pt4,14.99005241693772
Ce1 Cu1 S1 O1,6.417583156208676
Ce1 Cu1 Sb2,7.768085077374497
Ce1 Cu1 Si1,6.4872156097910905
Ce1 Cu1 Si2,5.246429701215274
Ce1 Cu1 Si2 Ni1,6.665353156788799
Ce1 Cu1 Si2 Pd1,7.147837461976176
Ce1 Cu1 Si2 Ru1,7.210374472659222
Ce1 Cu1 Sn1,7.595074030092009
Ce1 Cu1 Te1 O1,7.289995732249588
Ce1 Cu2,8.065457035626098
Ce1 Cu2 Ge2,7.768523037565995
Ce1 Cu2 Si1,6.941639626403928
Ce1 Cu2 Si1 Ge1,7.17980084019873
Ce1 Cu2 Si2,6.571257460055593
Ce1 Cu5,8.294882188089142
Ce1 Dy1 C4,6.723628564205575
Ce1 Dy1 Fe4,9.02633586832934
Ce1 Dy1 Mg2,5.257916281296152
Ce1 Dy1 Zn2,7.624705219924774
Ce1 Dy3,8.36768947126081
Ce1 Er1,8.381935267048677
Ce1 Er1 In2,8.11029704138075
Ce1 Er1 Mg2,5.443420521763364
Ce1 Er3,8.549385984019418
Ce1 Eu1 Ag2,6.725998049655437
Ce1 Eu1 Al4,5.224434467114604
Ce1 Eu1 Cd2,7.349686474211468
Ce1 Eu1 Zn2,7.004805751998524
Ce1 Eu3,6.013939571199297
Ce1 F3,5.980342131677239
Ce1 Fe1 As1 O1,6.611233843492404
Ce1 Fe1 Co1,9.267979116229558
Ce1 Fe1 Cu1,8.885450526696301
Ce1 Fe1 Ge3,7.491057000339021
Ce1 Fe1 Ni4,8.2980630809152
Ce1 Fe1 O3,6.6558368488298125
Ce1 Fe1 Sb2,8.038810955236894
Ce1 Fe1 Si1,6.792241418835013
Ce1 Fe1 Si2,6.195414084483441
Ce1 Fe2,8.85914532306514
Ce1 Fe2 Ge2,7.979173854193866
Ce1 Fe2 P2,7.040081894557896
Ce1 Fe2 Si2,6.676438985999698
Ce1 Fe5,7.942087595063134
Ce1 Ga1,6.8498819888692495
Ce1 Ga1 Ag1,7.866108810409565
Ce1 Ga1 Co1,8.075740247978983
Ce1 Ga1 Cu4,7.985919488427755
Ce1 Ga1 Ge1,7.00899551650967
Ce1 Ga1 Ni1,8.133797713502123
Ce1 Ga1 Ni4,8.468811491603601
Ce1 Ga1 O2,7.205762331213115
Ce1 Ga1 O3,4.980294477890348
Ce1 Ga1 Pt4,14.644176866912302
Ce1 Ga1 Si1,6.215227441904897
Ce1 Ga2,6.913058000432487
Ce1 Ga2 Cu3,7.919884974305918
Ce1 Ga2 Ni1,7.514632219621806
Ce1 Ga2 Ni2,7.771989507968275
Ce1 Ga2 Ni3,8.296697086503613
Ce1 Ga3,7.143668561733019
Ce1 Ga3 Ag1,7.426585992232765
Ce1 Ga3 Au1,8.898702653149664
Ce1 Ga3 Cu1,6.725756900816654
Ce1 Ga3 Ni1,7.39148869748196
Ce1 Ga3 Pd1,7.680768828928758
Ce1 Ga3 Pd2,8.55812853800259
Ce1 Ga3 Pt1,9.404170870837618
Ce1 Ga6 Ni1,7.041036005732902
Ce1 Ga6 Pd1,7.04636712738228
Ce1 Gd1 N2,8.582481590268573
Ce1 Gd3,7.985687842404764
Ce1 Ge1,7.127998853936767
Ce1 Ge1 Au1,9.009738638331234
Ce1 Ge1 Bi2,9.722687101390209
Ce1 Ge1 Pd1,8.503023931011345
Ce1 Ge1 Pt1,10.888846771622047
Ce1 Ge2,6.940300280320133
Ce1 Ge2 Au2,10.862776756727694
Ce1 Ge2 Pd2,8.668001159337495
Ce1 Ge2 Pt2,11.594403309301558
Ce1 Ge2 Rh2,8.90635520550851
Ce1 Ge2 Ru2,8.78804979951962
Ce1 Ge3 Ir1,9.201014003416708
Ce1 Ge3 Rh1,7.783842299275899
Ce1 Ge5,6.860331836203613
Ce1 H1 Se1,6.661909572247672
Ce1 H2,5.811499394673448
Ce1 H3,5.871719551761305
Ce1 Hg1,10.077876622969242
Ce1 Hg1 Au2,12.581965132559866
Ce1 Hg1 Pd1,10.70537219979378
Ce1 Hg2,11.764327622498632
Ce1 Hg3,11.9086618917607
Ce1 Ho1 In2,8.1124112061708
Ce1 Ho1 Mg2,5.280881362199867
Ce1 Ho1 Zn2,7.797573261373882
Ce1 Ho3,8.322057996161982
Ce1 I3,3.982958580141416
Ce1 In1 Ag2,8.57929329408748
Ce1 In1 Au1,10.068699320919398
Ce1 In1 Au2,11.805817745948907
Ce1 In1 Cu1,7.654225312623984
Ce1 In1 Cu1 Ag1,8.40540865530639
Ce1 In1 Cu2,8.263486958130496
Ce1 In1 Ir1,11.16151460908032
Ce1 In1 Ni1,8.316042598015706
Ce1 In1 Ni4,9.227057871991931
Ce1 In1 Pd1,8.678285088253183
Ce1 In1 Pd2,8.992131102287749
Ce1 In1 Pt1,10.90970939381373
Ce1 In1 Pt4,15.18095442073517
Ce1 In1 Rh1,8.903844075838535
Ce1 In2 Ir1,10.242143587971196
Ce1 In2 Pd1,8.4390256127484
Ce1 In2 Rh1,8.59112594308022
Ce1 In2 Ru1,8.530863512166858
Ce1 In3,7.712610919583898
Ce1 In5 Co1,7.897022127398995
Ce1 In5 Ir1,8.902153726103897
Ce1 In5 Rh1,8.05771622389016
Ce1 Ir1 Os1,15.57949385065806
Ce1 Ir1 Pt1,15.433018829434362
Ce1 Ir2,15.696372671571046
Ce1 Ir5,17.204353083718015
Ce1 Lu1 Al4,5.778923833922997
Ce1 Lu1 Mg2,5.584772511285472
Ce1 Lu3,9.337405129700617
Ce1 Mg1,3.145691644832516
Ce1 Mg1 Ag1,5.77245014788593
Ce1 Mg1 Ag2,6.865519653655539
Ce1 Mg1 Au1,8.316551558418748
Ce1 Mg1 Au2,10.3366343909815
Ce1 Mg1 Cd2,6.580365649187045
Ce1 Mg1 Cu1,5.3378003375372165
Ce1 Mg1 Cu2,6.276078591032576
Ce1 Mg1 Ga1,5.3800034080029
Ce1 Mg1 Hg2,9.52583675671717
Ce1 Mg1 Ni4,7.68581124028461
Ce1 Mg1 Pd1,6.558655449843487
Ce1 Mg1 Pt1,8.863325269453782
Ce1 Mg1 Rh1,6.861493549804104
Ce1 Mg1 Tl1,7.344651117169693
Ce1 Mg1 Zn2,5.852855006758692
Ce1 Mg2,3.835540476529448
Ce1 Mg2 Ag1,5.3026297289285536
Ce1 Mg2 Cu1,4.892574932710212
Ce1 Mg2 Fe1,4.68759174743158
Ce1 Mg2 Ni1,5.052425493115271
Ce1 Mg2 Si2,3.9439975685705857
Ce1 Mg3,3.227353545493284
Ce1 Mg5,2.7878642097477804
Ce1 Mg6 Al1,2.520553018416294
Ce1 Mg6 B1,2.799718200729521
Ce1 Mg6 Bi1,3.94369666585138
Ce1 Mg6 C1,2.519948176258838
Ce1 Mg6 Cr1,2.9669181927604904
Ce1 Mg6 Cu1,3.06023358739471
Ce1 Mg6 Fe1,3.1871901810912298
Ce1 Mg6 Ga1,3.1303774796084323
Ce1 Mg6 Ni1,3.235742459376893
Ce1 Mg6 Sb1,3.41176025949216
Ce1 Mg6 Si1,2.7994431639833164
Ce1 Mg6 V1,2.9857149078720515
Ce1 Mg6 Zn1,3.0274718847251463
Ce1 Mn1 Al1,6.472312780964126
Ce1 Mn1 As1 O1,6.464805565606248
Ce1 Mn1 Cr1 Si2,6.067117044398756
Ce1 Mn1 Ge1,7.47039964523723
Ce1 Mn1 In1,7.357126150939833
Ce1 Mn1 Ni4,8.563119488807066
Ce1 Mn1 O3,6.685230623331083
Ce1 Mn1 Sb1 O1,6.588884381157678
Ce1 Mn1 Si1,6.642875720717484
Ce1 Mn1 Si2,5.997340157752565
Ce1 Mn1 Si2 Pd1,7.125052716792597
Ce1 Mn1 Sn2,7.234036910493131
Ce1 Mn2 Ge2,7.601536767626572
Ce1 Mn2 Si2,6.287810059536879
Ce1 N1,7.942475672762934
Ce1 N2,5.619943409081939
Ce1 Nd1 Al4,5.1472055178630525
Ce1 Nd1 C4,5.941291218689624
Ce1 Nd1 Hg2,10.4067124488297
Ce1 Nd1 N2,7.806569823013559
Ce1 Nd1 S2,6.068627692241313
Ce1 Nd1 Si2,5.995376373778111
Ce1 Nd1 Zn2,6.070487485057948
Ce1 Nd3,7.004675201787885
Ce1 Ni1,8.08655705194858
Ce1 Ni1 As1,7.855051772756639
Ce1 Ni1 As1 O1,7.550537307938329
Ce1 Ni1 C2,7.083700908421734
Ce1 Ni1 Ge1,7.658880323566977
Ce1 Ni1 Ge2,7.708618588528199
Ce1 Ni1 O3,7.555550238569517
Ce1 Ni1 Sb1,7.97082046195398
Ce1 Ni1 Sb2,8.015374817215342
Ce1 Ni1 Sn1,7.895783191834698
Ce1 Ni1 Sn2,7.927363915348869
Ce1 Ni2,9.264253028620365
Ce1 Ni2 As2,8.004943194255544
Ce1 Ni2 B2 C1,7.201246039727224
Ce1 Ni2 Ge2,8.01557866411645
Ce1 Ni2 P2,7.204627030803131
Ce1 Ni2 Sb2,8.247354182135311
Ce1 Ni2 Sn2,8.04856030333494
Ce1 Ni5,8.791113398633506
Ce1 O1,8.366624445518214
Ce1 O1 F1,6.198333218896026
Ce1 O2,5.962115660346727
Ce1 O3,5.386145641533107
Ce1 Os1 Ru1,12.983420289515314
Ce1 Os2,15.545620521908685
Ce1 P1,5.823775878423911
Ce1 P1 Ir1,10.296463667794248
Ce1 P1 Pd1,7.631081047615146
Ce1 P1 Ru1 O1,7.381424785279234
Ce1 P2 Pd2,8.03534648828415
Ce1 P2 Ru2,8.25611939514911
Ce1 P3,5.380440516049412
Ce1 Pb1 Au1,11.41288912892461
Ce1 Pb1 Au2,12.859477768048986
Ce1 Pb2,10.199217898062972
Ce1 Pb3,10.81948170456341
Ce1 Pd1,8.55734810768853
Ce1 Pd1 Pt4,15.321617134104736
Ce1 Pd1 Rh2,10.831224631932702
Ce1 Pd2,8.660970461796424
Ce1 Pd2 Pt1,12.56161348079697
Ce1 Pd3,10.533621051503308
Ce1 Pd5,10.011440919641863
Ce1 Pd7,11.025839836771985
Ce1 Pm1 Mg2,4.769103135964009
Ce1 Pm1 Tl2,9.744613898602122
Ce1 Pm1 Zn2,7.082864148117521
Ce1 Pm3,6.844391511471545
Ce1 Pr1 Al4,5.0355626322407945
Ce1 Pr1 Fe4,8.277824717432093
Ce1 Pr1 Hg2,9.97207910652127
Ce1 Pr1 Mg2,4.741073052743227
Ce1 Pr1 O2,8.0886708844974
Ce1 Pr1 O4,6.55312777253326
Ce1 Pr2 O6,6.4017726230935965
Ce1 Pr3,6.206627472344161
Ce1 Pt1,11.750921281911207
Ce1 Pt1 Rh1,12.82526501573008
Ce1 Pt2,15.01273444986084
Ce1 Pt2 Au3,15.932701457300183
Ce1 Pt3,16.57129690049868
Ce1 Pt4 Rh1,15.339521701965184
Ce1 Pt5,16.554084937206174
Ce1 Re4 Si2,13.163113716316175
Ce1 Rh1,9.165016578153756
Ce1 Rh1 Pb1,10.813774998995418
Ce1 Rh2,10.506618373501276
Ce1 Rh3,11.04864804493288
Ce1 Rh3 C1,10.12111796288638
Ce1 Ru1 Rh1,10.470157234631117
Ce1 Ru2,10.444470046690055
Ce1 Ru3 C1,10.309034846745217
Ce1 S1,3.4891695962585785
Ce1 S1 F1,5.808082954294073
Ce1 S2,5.365959333846227
Ce1 S3,5.138819381869455
Ce1 Sb1,6.728726926954054
Ce1 Sb1 Au1,9.90609898861151
Ce1 Sb1 Pd1,8.341894278052017
Ce1 Sb1 Pt1,11.42219818481544
Ce1 Sb1 Rh1,9.036471737864636
Ce1 Sb1 Te1,7.2564244671293405
Ce1 Sb2 Au1,9.582450379803875
Ce1 Sb2 Pd1,2.8039594208470127
Ce1 Sb3,7.754305370437315
Ce1 Sc1 Al4,4.096501012633097
Ce1 Sc1 Ge1,5.8219728798533685
Ce1 Sc1 Pd6,10.02245025512748
Ce1 Sc1 Sb1,6.154335126486006
Ce1 Sc1 Si1,4.959333761894866
Ce1 Se1,6.992020302426222
Ce1 Se2,0.7637004050988495
Ce1 Si1,6.016046898503363
Ce1 Si1 Ag1,6.772330644743644
Ce1 Si1 B1 Ir3,13.53520047849944
Ce1 Si1 B1 Rh3,8.8559642071587
Ce1 Si1 Ge1,6.292748836468584
Ce1 Si1 Ge1 Pd2,8.198623412346802
Ce1 Si1 Ge1 Rh2,8.41974941024268
Ce1 Si1 H1 Ru1,7.123101362521246
Ce1 Si1 I1,5.42453514625137
Ce1 Si1 Ni1,6.66499237850333
Ce1 Si1 Ni4,8.106067355790818
Ce1 Si1 Os1,9.874248710200904
Ce1 Si1 Pt1,9.55474186773693
Ce1 Si1 Pt2,11.967904061761663
Ce1 Si1 Pt3,13.616649050512317
Ce1 Si1 Rh2,8.422250681100365
Ce1 Si1 Ru1,7.469791051078486
Ce1 Si1 Sn2,6.31853340378933
Ce1 Si2,5.496004682500788
Ce1 Si2 Ag1,6.4554084724260825
Ce1 Si2 Ag2,7.094498185497589
Ce1 Si2 Au2,10.188149556697963
Ce1 Si2 Au4,12.304832603831963
Ce1 Si2 Ir1,8.701606687830042
Ce1 Si2 Ir2,10.826834717544516
Ce1 Si2 Ir3,12.7715269345875
Ce1 Si2 Mo2 C1,6.9665448339818505
Ce1 Si2 Ni1,6.251497379153038
Ce1 Si2 Ni2,6.707269264713748
Ce1 Si2 Os1 Ru1,9.365692157045949
Ce1 Si2 Os2,11.111814445606266
Ce1 Si2 Pd2,7.655210799110225
Ce1 Si2 Pt1,8.605064498996002
Ce1 Si2 Pt2,11.00106653072524
Ce1 Si2 Rh1,6.748562018568357
Ce1 Si2 Rh2,7.854644209730276
Ce1 Si2 Ru1,6.749524758633995
Ce1 Si2 Ru1 Rh1,7.687862676036608
Ce1 Si2 Ru2,7.707618992718919
Ce1 Si2 Ru3,8.392014453077607
Ce1 Si3 Ir1,7.8622504627962035
Ce1 Si3 Os1,7.759693596467857
Ce1 Si3 Pt1,7.802843565920025
Ce1 Si3 Rh1,6.200860692935676
Ce1 Si3 Ru1,6.168271021275396
Ce1 Si5,4.4023811070032535
Ce1 Sm1,7.699542077807669
Ce1 Sm1 Fe4,9.209925958697914
Ce1 Sm1 Mg2,4.995223962139214
Ce1 Sm1 O2,8.681226305165515
Ce1 Sm1 Tl2,10.065916199209694
Ce1 Sm1 Zn2,6.988330897921372
Ce1 Sm3,7.459181868687929
Ce1 Sm3 S4,6.547302497461421
Ce1 Sn1 Au1,9.924393808765611
Ce1 Sn1 Au2,11.877787433001297
Ce1 Sn1 Ir1,11.300226063840745
Ce1 Sn1 O4,7.077555017289279
Ce1 Sn1 Pd1,8.653325663622555
Ce1 Sn1 Pt1,10.842256558624552
Ce1 Sn1 Rh1,9.071937404692132
Ce1 Sn3,7.835168734786578
Ce1 Ta1 O3,9.193428072048937
Ce1 Te1,6.977734000905439
Ce1 Te1 Cl1,6.040275338469651
Ce1 Te2,7.134723801485132
Ce1 Te3,6.877300048981893
Ce1 Ti1 Ge1,6.58240641579166
Ce1 Ti1 O3,6.393636591786039
Ce1 Ti2 O6,4.790991858865553
Ce1 Tl1,9.745361776623868
Ce1 Tl1 Ag2,9.878577865833789
Ce1 Tl1 Au2,12.978486957252008
Ce1 Tl1 Cd1,9.628457521301865
Ce1 Tl1 Pd1,10.473139456951635
Ce1 Tl1 Se2,7.123638765372582
Ce1 Tl1 Te2,7.803206486631448
Ce1 Tl1 Zn1,9.027682730946545
Ce1 Tl2 In1 Se4,6.879708933015846
Ce1 Tl3,11.127522131294548
Ce1 Tm1 In2,7.917716289218495
Ce1 Tm1 Mg2,5.333609788012799
Ce1 Tm3,8.961383908239487
Ce1 V1 O3,6.588682830299179
Ce1 Y1,6.136832187949967
Ce1 Y1 Al4,4.4370214448950325
Ce1 Y1 C4,5.272172180087
Ce1 Y1 Co4,8.624572598823555
Ce1 Y1 Cu4,7.339573080660486
Ce1 Y1 Fe4,7.725443532212078
Ce1 Y1 In2,6.832681483916399
Ce1 Y1 In6,7.424940190299355
Ce1 Y1 Mg2,4.1430827469463765
Ce1 Y1 Mg4,3.494670132465815
Ce1 Y1 Ni4,8.31840673245287
Ce1 Y1 Pd6,10.117274957279852
Ce1 Y1 Rh4,9.720285704307248
Ce1 Y1 Tl2,9.254918568824287
Ce1 Y1 Zn2,6.351897488036667
Ce1 Y2 Al3 Pd3,6.545480556422218
Ce1 Y3,5.218194197807378
Ce1 Zn1,7.240853036650432
Ce1 Zn1 Ag1 As2,6.85094294781528
Ce1 Zn1 Ag1 P2,6.137641996537944
Ce1 Zn1 Au2,11.710937259903604
Ce1 Zn1 Cu1 P2,5.950102805726658
Ce1 Zn1 Ga1,7.000527389589965
Ce1 Zn1 Ga3,6.980423409697203
Ce1 Zn1 In1,7.281738476849674
Ce1 Zn1 Ni1,7.944633873804385
Ce1 Zn1 Ni4,8.603060772395558
Ce1 Zn1 P1 O1,5.898656534879882
Ce1 Zn1 Pd1,8.305003803292895
Ce1 Zn1 Sb1 O1,6.867786359521561
Ce1 Zn1 Si1,6.178922832644479
Ce1 Zn2,7.159182994871291
Ce1 Zn2 Ag1,7.787014066589264
Ce1 Zn2 As1 O2,4.6818856356510805
Ce1 Zn2 Au4,13.02080925258232
Ce1 Zn2 Co1,7.947073591080231
Ce1 Zn2 Fe1,7.945159621589906
Ce1 Zn2 Ga2,7.058965267788411
Ce1 Zn2 Ni1,7.450922046769999
Ce1 Zn2 Ni3,8.146748966952346
Ce1 Zn2 P1 O2,4.806706299663171
Ce1 Zn3,7.120207171400017
Ce1 Zn3 Cu2,7.6992476005433215
Ce1 Zn3 Pd2,8.432224616202992
Ce1 Zn4 Ni1,7.595813887703168
Ce1 Zn5,7.233900794805449
Ce1 Zr1 O4,6.543013697268595
Ce1 Zr2 O6,6.382881105295554
Ce2 Ag1 Hg1,8.914824016244488
Ce2 Ag1 Pb1,8.630859013343166
Ce2 Ag1 Sn1,7.594541027009167
Ce2 Ag3 Sb3,7.60666284147891
Ce2 Al1 Fe3,7.90158996670844
Ce2 Al1 N1 O3,7.033338507490851
Ce2 Al3 Fe1,5.88161360050855
Ce2 Al3 Sn1,5.480869651437448
Ce2 B1 Pd6,9.83107606705239
Ce2 Bi1,8.73969172568164
Ce2 Bi1 N1,8.276854322046352
Ce2 Bi1 O2,8.158307941274158
Ce2 C1 N2 O2,5.264092503746945
Ce2 Cd1 As2 O1,5.92762189742996
Ce2 Cd1 Hg1,8.627142394194433
Ce2 Cd1 In1,7.437824252997223
Ce2 Cd1 Pb1,8.405057471613663
Ce2 Cd1 Sb4,7.034174702661852
Ce2 Cl2 O1,1.417609314198955
Ce2 Co1 Ru3,10.256385217595248
Ce2 Co1 Si3,6.083824059389583
Ce2 Cr1 N3,7.618040571232197
Ce2 Cu1 Ge3,7.390644213267785
Ce2 Cu1 Ge6,6.977425459474289
Ce2 Cu1 N2 O2,7.210075761553428
Ce2 Cu1 S2 O1,3.341658183320646
Ce2 Cu1 Si3,6.023552084097982
Ce2 Cu1 Te2 O1,5.480437702179163
Ce2 Cu3 Ge3,7.589319980575552
Ce2 Cu3 Sb4,7.781664549358303
Ce2 Cu3 Sn3,1.63853018734219
Ce2 Fe1 As2 O1,5.767964272135424
Ce2 Fe1 P2 O1,5.035915925484491
Ce2 Fe1 Ru3,10.258596377225269