Composition,Density
Ba2 Sr1 Ca1,0.2441383955647864
Ba2 Sr1 I6,3.9209754358950777
Ba2 Sr1 N2,4.586691294221148
Ba2 Tc2 O5,6.783354511450378
Ba2 Te1 O1,5.206359499378815
Ba2 Ti1 O4,4.60583008981179
Ba2 Tl1 Ag1,0.5077955801604653
Ba2 Tl1 Au1,0.5952517717279715
Ba2 Tl1 Cd1,6.237292470302084
Ba2 Tl1 Cu1 O5,7.190638062517283
Ba2 Tl1 Hg1,0.5947524324369714
Ba2 Tl1 In1,0.5240515902515852
Ba2 Tl1 Pb1,0.5755645203096054
Ba2 Tl1 Pd1,0.5209403395802915
Ba2 Tl1 Zn1,5.9996655694923895
Ba2 Tl3 Au1,8.967196177168686
Ba2 V2 O5,5.567161450633148
Ba2 Y1,3.806053666652661
Ba2 Zn1,4.272596092426538
Ba2 Zn1 Ag1,0.440475984388458
Ba2 Zn1 Au1,0.5620578178165135
Ba2 Zn1 Cd1,4.997620909096431
Ba2 Zn1 F6,5.230953285945677
Ba2 Zn1 Ga1,0.4106951357558246
Ba2 Zn1 Hg1,0.498275781670683
Ba2 Zn1 In1,0.4316545678575527
Ba2 Zn1 N2,5.255315749222537
Ba2 Zn1 P2 F1,3.1235814981216845
Ba2 Zn1 Pb1,0.4952145844053756
Ba2 Zn1 Pd1,0.5054613686612356
Ba2 Zn1 Sb2 F1,4.296060672210117
Ba2 Zn1 Sn1,0.4304151480104372
Ba2 Zn3 As2 O2,6.03038768190828
Ba2 Zn3 P2 O2,5.480490757731043
Ba2 Zr1 O3 F2,5.294471437479161
Ba2 Zr1 O4,5.804495271147768
Ba2 Zr1 O6,5.159033820601749
Ba2 Zr1 S4,4.113162603403885
Ba3 Al2 Ge2,4.452898458893364
Ba3 Al2 Si2,3.8985875752982224
Ba3 Al2 Sn2,4.584363067360534
Ba3 As1 N1,3.5127618795476065
Ba3 As1 P1,3.666542479338332
Ba3 As2,3.944475555497793
Ba3 Bi1,5.780743761968124
Ba3 Bi1 As1,4.060822857577817
Ba3 Bi1 N1,3.65087216507948
Ba3 Bi1 P1,3.829561683943
Ba3 Bi1 Sb1,4.316539038767182
Ba3 Bi2,4.767074022046877
Ba3 Ca1,3.162213171424902
Ba3 Ca1 O4,5.210708177879748
Ba3 Cd2 As4,5.613665279926713
Ba3 Cd2 Sb4,5.73667849683731
Ba3 Ce1,4.043204608765339
Ba3 Dy1,4.630301020569985
Ba3 Er1,4.657498832292063
Ba3 Eu1,3.9397882604012415
Ba3 H1,3.426730663515582
Ba3 Ho1,4.639562247400872
Ba3 La1,4.181506840866934
Ba3 Li1,3.16775462066498
Ba3 Mn1,4.384276856378131
Ba3 Mo1,4.958801123618891
Ba3 N1,3.8444986500611233
Ba3 N2,4.720641166264978
Ba3 Na1,3.01875898886516
Ba3 Nb1,4.737884870021987
Ba3 Nd1,4.334220263936064
Ba3 P1 N1,3.4095734485240574
Ba3 P2,3.5550747021272
Ba3 Pb1 O1,6.15976443546298
Ba3 Pm1,4.35252691334054
Ba3 Pr1,4.301497371127366
Ba3 Sb1,5.122109246142935
Ba3 Sb1 As1,3.692311515291748
Ba3 Sb1 N1,3.281609293133699
Ba3 Sb1 P1,3.4407897248292945
Ba3 Sb2,3.9498401970467216
Ba3 Sc4,3.886151317692162
Ba3 Se1,5.0166898855025055
Ba3 Si1 O1,4.746344014997515
Ba3 Sm1,4.398072987638426
Ba3 Sn1 O1,5.380650306421629
Ba3 Sn1 S4,4.308844101672287
Ba3 Sr1,3.2677161664145244
Ba3 Sr1 Ag4,5.407330387258237
Ba3 Sr1 O4,5.526653937390982
Ba3 Tb1,4.571607874482213
Ba3 Te1,4.6609739409915445
Ba3 Tm1,4.710804582039163
Ba3 Y1,3.9990429476963234
Ba3 Yb1,4.085504565565678
Ba3 Zn1 N2 O1,5.410370319041467
Ba3 Zn2 As4,5.359610087036423
Ba4 As2 O1,4.982529481545484
Ba4 Bi2 O1,5.980843566404636
Ba4 Ga1 Sn3,5.086665274307991
Ba4 Sb2 O1,5.124792137086197
Be1,1.8691156800886053
Be1 Ag1 O3,6.0255408511428925
Be1 Ag3,8.690420445482527
Be1 Al1 B1,2.5435265622003507
Be1 Al1 B1 O3 F2,0.23969680240187
Be1 Al1 Co2,0.435204941046347
Be1 Al1 Ir2,13.962700693434638
Be1 Al1 Pd2,0.6205073934045818
Be1 Al1 Pt2,1.073699033611491
Be1 Al1 Rh2,8.161792147421695
Be1 Al3,2.5701886678276047
Be1 As1 Ru2,0.737078708730341
Be1 Au1,12.98140039607364
Be1 Au1 O3,9.261457216557636
Be1 Au2,15.141123901598716
Be1 Au3,15.429408320118082
Be1 B1 Ir2,1.3255563789557248
Be1 B1 O3,3.2362881614185133
Be1 B1 Pt2,1.3174062585948902
Be1 B2,2.3784323923271464
Be1 Bi1 O3,8.907780541851858
Be1 Bi1 Os2,15.34822286273114
Be1 Br2,2.7556871884807554
Be1 C1 N2,3.2913397139121083
Be1 C2,1.8784797934185624
Be1 Cd1 O3,5.954360275822377
Be1 Cd1 Pt2,1.040249154255899
Be1 Cl1 O1,2.119051680265983
Be1 Cl2,1.6583287032878606
Be1 Co1,6.479698337891547
Be1 Co2 B1,0.5251614910711331
Be1 Co2 Ge1,7.917746063551354
Be1 Co2 P1,0.6080367467850146
Be1 Co2 Si1,6.6552066806433485
Be1 Cr1 Fe2,0.4733551128479054
Be1 Cr1 Ir2,1.0846873318645056
Be1 Cr1 Os2,1.1984635198833298
Be1 Cr1 Pt2,1.1877689971999006
Be1 Cr1 Ru2,9.069539086866891
Be1 Cr3,6.329398094017283
Be1 Cu1,6.201946001251134
Be1 Cu1 Br1,4.653859615409028
Be1 Cu1 O3,4.825262704072896
Be1 Cu1 Pd2,0.7509084020734006
Be1 F2,1.2469785318451188
Be1 Fe1 Co2,0.5977002309732177
Be1 Fe1 Pt2,1.2607694007896917
Be1 Fe1 Rh2,9.086506267748955
Be1 Fe1 Ru2,0.7587974768690197
Be1 Fe2 P1,0.540361000536563
Be1 Fe2 Si1,6.269390928483566
Be1 Fe2 W1,0.8887922546609596
Be1 Fe3,6.950965209452741
Be1 Ga1 Co2,7.770018877522278
Be1 Ga1 Ir2,15.062823306604235
Be1 Ga1 O3,5.069464910461347
Be1 Ga1 Pd2,0.7184315394738502
Be1 Ga1 Pt2,1.1606549367279424
Be1 Ga1 Rh2,9.421299697916377
Be1 Ga3,5.72121687667725
Be1 Ge1 As2,4.729998634658272
Be1 Ge1 B1,4.541540805732744
Be1 Ge1 Ir2,1.1960329623685857
Be1 Ge1 O3,5.000350700463459
Be1 Ge1 P2,3.348982165256698
Be1 Ge1 Pt2,0.810024787719362
Be1 Ge1 Rh2,0.7741609070141593
Be1 Ge1 Ru2,9.44187103724252
Be1 Ge2 Te1,5.968362361274554
Be1 Ge3,5.5347366573755465
Be1 H1,1.3569997300943968
Be1 H1 Pt2,1.4777861963468115
Be1 Hg1 O3,8.749032475961629
Be1 I2,3.588179081013294
Be1 In1 Bi1,6.391578062119361
Be1 In1 O3,6.342490224546631
Be1 In1 Pt2,1.038612489023397
Be1 In1 Si2,4.502756485419639
Be1 In3,6.382623442147085
Be1 Mo1 Ru2,0.771467802720322
Be1 Mo3,8.617302186212072
Be1 Nb1 Co2,0.5954913316169225
Be1 Nb1 Os2,1.1095021928882245
Be1 Nb1 Ru2,9.103517609590318
Be1 Ni1,6.359073940626532
Be1 Ni3,7.655650589371072
Be1 O1,2.8545847303724816
Be1 Os1 O3,10.107589237169604
Be1 P1 O4,2.036914869095858
Be1 P1 Ru2,0.7464977712999247
Be1 P2,2.429318668711429
Be1 Pb1 O3,9.003621812885386
Be1 Pb3,9.522380802474949
Be1 Pd1,8.437278937378421
Be1 Pd1 O3,6.33803315723255
Be1 Pd2,9.646193892946638
Be1 Pd3,10.121525841664466
Be1 Pt1 O3,9.741122777998369
Be1 Pt2 Au1,1.3291606239223472
Be1 Re1 B1,9.886411741988326
Be1 Re1 O3,9.797644628821834
Be1 Rh1,8.590553768419028
Be1 Ru2 W1,12.192531829773102
Be1 Ru3,10.054537860645995
Be1 S1,2.355668427070277
Be1 S1 O4,2.370306353181785
Be1 Sb1 As2,6.031866683246401
Be1 Sb1 O3,6.484145020487226
Be1 Se1,4.194882439247549
Be1 Si1 As2,4.004123884544469
Be1 Si1 Ir2,14.447429052849705
Be1 Si1 N2,3.163443671010434
Be1 Si1 Ni2,6.402183205641644
Be1 Si1 O3,3.360455805228184
Be1 Si1 Os2,14.419373175751833
Be1 Si1 P2,2.443634992369747
Be1 Si1 Rh2,8.508802048608302
Be1 Si1 Ru2,8.427571445398009
Be1 Si1 Tc2,0.5907499229788242
Be1 Sn1 As2,5.073891376727238
Be1 Sn1 P2,3.910250237028765
Be1 Tc1 Se1,7.273822261782933
Be1 Te1,4.979386394106737
Be1 V1 Co2,7.088484015870805
Be1 V1 Fe2,6.823930537400349
Be1 V1 Ir2,1.202667926533936
Be1 V1 O3,4.446281942922852
Be1 V1 Os2,14.45293271727914
Be1 V1 Rh2,0.7428480756522151
Be1 V1 Ru2,8.76671499201651
Be1 W2 Cl1,12.680088827153114
Be1 Zn1 Ir2,1.1010938938620658
Be1 Zn1 O2,4.750973583385163
Be1 Zn1 O3,4.728391300139916
Be1 Zn1 Pt2,1.1055858268606396
Be1 Zn1 S2,3.3231201000247226
Be1 Zn3 O4,5.187719643290688
Be1 Zn3 S4,3.694632320932367
Be2 Ag1,6.320796766408729
Be2 Ag1 Pt1,0.8862587936664266
Be2 B1,2.0071218500498262
Be2 B1 O5,2.1451242747810424
Be2 C1,2.4612616144131447
Be2 Cd1 P1,4.74654491744876
Be2 Cd1 Pt1,0.8317131725565189
Be2 Co1,4.663728763226148
Be2 Co1 Au1,0.7000227833505301
Be2 Co1 Cu1,0.447278174945264
Be2 Co1 Ir1,11.16765132300947
Be2 Co1 Ni1,6.457584908192208
Be2 Co1 Os1,0.7776572574278958
Be2 Co1 Pd1,0.5626763422514701
Be2 Co1 Pt1,11.145449400049912
Be2 Co1 Rh1,0.5239965641266259
Be2 Co1 Ru1,0.4676333988855324
Be2 Co1 Si1,4.621648258956044
Be2 Cr1 Ir1,0.7930893340372488
Be2 Cr1 Pt1,0.7817510517861586
Be2 Cu1,5.046496676508857
Be2 Cu1 Ir1,10.9222187934366
Be2 Cu1 Ni1,0.486562096536651
Be2 Cu1 Os1,0.8650431679954002
Be2 Cu1 Pd1,0.6010518648053714
Be2 Cu1 Pt1,10.670655428246045
Be2 Cu1 Rh1,7.391895270750255
Be2 Cu1 Ru1,7.453362852238523
Be2 Fe1 Pt1,0.8811828876283869
Be2 Fe1 Ru1,0.6342591792735682
Be2 Hg1 Te1,7.718725391715966
Be2 Ir1 Au1,1.1954503954914624
Be2 Ir1 Os1,1.24921946525629
Be2 Ir1 Pd1,11.81575677825816
Be2 Ir1 Pt1,15.010087096889585
Be2 Ir1 Rh1,1.0116074641428396
Be2 Ir1 Ru1,0.997865094586166
Be2 Nb1,5.269015614354269
Be2 Ni1 Ir1,11.18965891494708
Be2 Ni1 Pd1,0.7497578874762142
Be2 Ni1 Pt1,11.002438494852443
Be2 Ni1 Rh1,7.571426986273861
Be2 Ni1 Ru1,0.7396549070941127
Be2 Os1 Au1,1.174322915873535
Be2 Os1 Pt1,1.267568075208669
Be2 Pd1 Au1,0.9409000686705408
Be2 Pd1 Pt1,11.575665578068064
Be2 Pd1 Rh1,8.542205424362514
Be2 Pd1 Ru1,0.7073038001601971
Be2 Pt1 Au1,1.2108336842089211
Be2 Pt1 Rh1,11.80608421837258
Be2 Re1 Cl1,7.989592842722639
Be2 Rh1 Au1,11.219771158385509
Be2 Ru1 Au1,11.335799074735467
Be2 Ru1 Pt1,11.71407156212681
Be2 Ru1 Rh1,0.7189154557911597
Be2 Si1,2.08066021265331
Be2 Si2 O5,3.4534359738564304
Be2 Tc1 Pt1,0.9312823081856054
Be2 V1 Pt1,0.793960061412277
Be2 Zn1,4.349183982469148
Be2 Zn1 Os1,0.8132103028673328
Be2 Zn1 Pt1,0.8246630343738978
Be3 Co1,4.301352688165224
Be3 Cu1,4.239200072058037
Be3 Fe1,4.042916502750371
Be3 Ge1,3.878417689071559
Be3 Ir1,9.343472595604226
Be3 N2,2.6685321459417137
Be3 Ni1,4.21242304882457
Be3 Pd1,5.5800919650372665
Be3 Rh1,5.621096669927628
Be3 Ru1,5.603850077873621
Be3 S1,1.9760970598405043
Be3 Si1,2.298018932239553
Be3 Tc1,5.383550499818915
Be3 Zn1 O4,3.9705787771043273
Be3 Zn1 S4,2.884924392026965
Be4 Al1 Cr1,3.250864685120042
Be4 Al1 Cu1,3.665720299410731
Be4 Al1 Fe1,3.660458129794312
Be4 Al1 Ni1,3.7148757781640223
Be4 Co1 Ge1,5.035397861664137
Be4 Cu1 Ge1,4.69466580594491
Be4 Cu1 Si1,3.702443806746233
Be4 Fe1 Ge1,5.122133203657764
Be4 In1 Cu1,5.473494543139652
Be4 Ni1 Ge1,4.822262313952595
Be4 Si1 Ni1,3.89323613213789
Be5 Au1,7.014958351829136
Be5 Co1,3.603654583234001
Be5 Fe1,3.374534451972224
Be5 Pd1,4.675355101854835
Be5 Pt1,7.469293422588032
Bi1,0.9210363331483056
Bi1 As1 Pd6,11.31903512506864
Bi1 As2 Os1,11.672494422135184
Bi1 Au1,12.077056360793785
Bi1 Au1 O2,9.986487550224822
Bi1 Au2,15.082411237519452
Bi1 B1,8.574936006540474
Bi1 B1 Cl1,5.822759065481726
Bi1 B1 Te1,7.9101224182413725
Bi1 B6,6.07661928542081
Bi1 Br1 O1,7.2942964094684895
Bi1 Br3,4.438965233712183
Bi1 C1 N1 O1,7.03016307975055
Bi1 Cl1 O1,7.213106012240296
Bi1 F3,8.533604791565429
Bi1 F5,4.846229250580584
Bi1 H3,8.808682740012483
Bi1 I1,6.103604611731699
Bi1 I1 O1,7.379320758346734
Bi1 I3,4.658917194956157
Bi1 Mo1 O3,8.400327969313365
Bi1 Mo1 Rh1,10.62519557888657
Bi1 N1,9.89790015658482
Bi1 O1,8.635898557196244
Bi1 O1 F1,7.461909927678154
Bi1 O2,6.524787185996844
Bi1 Pb1,10.809505812237871
Bi1 Pb1 Br1 O2,8.267326653823874
Bi1 Pb1 F5,7.611259955093471
Bi1 Pb1 I1 O2,8.29069059039695
Bi1 Pb1 O2 F1,8.585313269196057
Bi1 Pb4,10.791002976597666
Bi1 Pd1,11.2523261137824
Bi1 Pd2 Au1,1.090951142332631
Bi1 Pd2 Pb1,11.975832995280744
Bi1 Pd3,12.146820316642144
Bi1 Pd6 Pb1,12.424317700340474
Bi1 Pd6 Se1,11.248094451630903
Bi1 Pt1,14.02374886933338
Bi1 Pt1 O3,11.128538791158809
Bi1 Pt2 Pb1,14.362909370294906
Bi1 Pt3,17.974009488949633
Bi1 Rh1,11.924012773164952
Bi1 S1,4.588338956019509
Bi1 S2,4.023816010342321
Bi1 S3,5.957188654074986
Bi1 Sb1,7.940448998445383
Bi1 Sb1 Pd2,10.212435197636465
Bi1 Sb1 Pt2,13.24901657521241
Bi1 Sb1 Te3,6.854835222929024
Bi1 Sb2 Os1,11.648601060978994
Bi1 Se1,3.032777514842582
Bi1 Te1,8.115759649288345
Bi1 Te1 Br1,6.081527381617852
Bi1 Te1 Cl1,5.448655034760901
Bi1 Te1 I1,6.151015975481926
Bi1 Te1 Ir1,10.746905359856354
Bi1 Te1 N1,7.071028756264905
Bi1 Te3,7.343800894020271
Bi2 Br1 Cl1 O2,7.675541676800163
Bi2 Br2 O1,6.361856470634193
Bi2 C1 O5,7.442508648399731
Bi2 Cl2 O1,5.562284876650503
Bi2 I2 O1,6.12128776238854
Bi2 O1 F2,5.746582278583441
Bi2 O3,8.344559748914879
Bi2 Os1 Au1,15.179996797059784
Bi2 Pb1 Se4,7.47457739895918
Bi2 Pb2 Se5,7.619754526999864
Bi2 Pd1,11.096921577831472
Bi2 Pd1 Pt1,12.756740720649754
Bi2 Pd3 S2,0.4912086886598495
Bi2 Pt1,12.113384375141644
Bi2 Sb2 Te3,7.393515731831972
Bi2 Se1 O2,9.181539094435832
Bi2 Se3,5.022671897302478
Bi2 Te1,8.883337166117965
Bi2 Te1 I1,6.846886532703683
Bi2 Te1 O2,9.180881239188588
Bi2 Te1 Se2,6.978952707652788
Bi2 Te2 S1,6.4365883317946
Bi2 Te2 Se1,7.096959354542384
Bi2 Te3,3.707019180940313
Bi2 Te4 Pb1,7.526713326881914
Bi2 Te5 Pb2,7.49926723303394
Bi3 As1,10.216549767456485
Bi3 Au1,10.704341127202404
Bi3 Br1 O4,8.503313517043926
Bi3 O2,9.831671955002976
Bi3 P1,9.886254192975734
Bi3 Pb1,10.995499257901134
Bi3 Pd5,10.946338517504262
Bi3 Pt2 Pb1,12.374350439202091
Bi3 Sb1,8.690341444944545
Bi3 Se4,7.2385700343647965
Bi3 Te5 Pb1,7.694452551223604
Bi4 S3 N2,7.604468012664844
Bi4 Se3,8.063953576309098
Bi4 Se3 N2,8.01760468574478
Bi4 Te3,8.069002640435489
Bi4 Te3 N2,8.001479205221472
Br1,3.3726136434377976
Br1 Cl1,2.401656937346041
Br1 F3,3.2159328199565884
Br1 N1,4.519493445308689
Br1 O1,4.076111168747045
Br1 O2 F1,2.931426787457507
Br1 O3,2.5618154552823698
Br2 Cl3,1.9692021093174288
Br3 N1,5.070188694113458
C1,0.3781141406688078
C1 Br1 N1,2.072432734872192
C1 Cl3,1.5620887822928873
C1 I1 N1,2.730178650165924
C1 I4,3.925783222986315
C1 N1 Cl1,1.4110975493163591
C1 N2,2.550627783372581
C1 N2 O1,1.1054361101578494
C1 O1,0.8771074268368513
C1 O2,1.4340794605797522
C1 O3,3.01989713421928
C1 S1,2.791271420818031
C1 S1 N2,0.7606039601817336
C1 S1 O1,1.2764372569537012
C1 S2,1.1756703390545102
C1 Se2,2.789351726499106
C3 N1,1.296113192254971
C3 N4,1.478616063997733
Ca1,0.2276275715076955
Ca1 Ag1,4.468633665301672
Ca1 Ag1 As1,5.62999941340262
Ca1 Ag1 Au2,0.7877696796389828
Ca1 Ag1 Bi1,7.025107660118207
Ca1 Ag1 Ge1,5.481231034718962
Ca1 Ag1 Hg2,9.663910115312849
Ca1 Ag1 N1,4.305894250729898
Ca1 Ag1 O2,5.401588465776304
Ca1 Ag1 P1,3.9817766684068654
Ca1 Ag1 Pb1,7.374639350760849
Ca1 Ag1 Sn1,5.877557941793861
Ca1 Ag2,5.923608976890817
Ca1 Ag2 Ge2,6.317496634972001
Ca1 Ag2 Pb1,0.608473711359912
Ca1 Ag2 Sn1,6.981403714582505
Ca1 Ag3,7.082542971599155
Ca1 Al1 Ga1,3.427472021248148
Ca1 Al1 Si1,2.3559907742364445
Ca1 Al1 Si1 H1,2.2859077749437424
Ca1 Al2,2.425284826496
Ca1 Al2 Ga2,3.821549521582601
Ca1 Al2 Ge2,3.6174367148155646
Ca1 Al2 Sb2,4.239481015766466
Ca1 Al2 Si2,2.347097201078894
Ca1 Al2 Sn2,4.0903048659472345
Ca1 Al2 Zn2,3.825547890362684
Ca1 Al3 Au1,5.1783894221469
Ca1 Al4,2.3116986040954672
Ca1 As1 Au1,7.489533574712491
Ca1 As2 O6,4.395442135753385
Ca1 As2 Pd2,6.851827936329905
Ca1 As2 Ru2,7.019824807005967
Ca1 As3,4.633747206090414
Ca1 Au1,7.570066135331412
Ca1 Au2,10.373884675649744
Ca1 Au3,12.4897118654164
Ca1 Au5,13.855024649668536
Ca1 B1 C1,3.339900433889729
Ca1 B1 O3,3.8973665776244015
Ca1 B1 Pd3,7.67729228775239
Ca1 B2,2.794106806770991
Ca1 B2 C6,2.129398723489813
Ca1 B2 H2,2.5399245393059
Ca1 B2 Rh3,7.675386225882517
Ca1 B6,2.4379955586864224
Ca1 Be1 Ge1,3.4273029076482624
Ca1 Be1 O3,3.412908258507992
Ca1 Be1 Si1,2.2458264791764364
Ca1 Be2 As2,3.862323874882371
Ca1 Be2 P2,2.482139913156865
Ca1 Bi1 Au1,8.731270980636863
Ca1 Bi1 Au2,0.8978471504202615
Ca1 Bi1 Au4,13.055403211558811
Ca1 Bi1 B1,5.2409017460709055
Ca1 Bi1 F6,4.237861724179402
Ca1 Bi1 I1 O2,6.122036427857116
Ca1 Bi1 N1 O5,4.578315754579262
Ca1 Bi1 Pd2,9.122314141938148
Ca1 Bi2,8.005464627308015
Ca1 Bi2 C2 O2,6.357404992491912
Ca1 Bi3,8.877435872359444
Ca1 Br1,2.851935243701138
Ca1 Br2,3.195251193921036
Ca1 C1,2.335909794490607
Ca1 C1 N2,2.2370024621758366
Ca1 C2,0.0395809114128748
Ca1 C2 S2 O2 F2,1.5306142570292365
Ca1 C4,2.936609289926182
Ca1 C6,1.3355105167033985
Ca1 Cd1,4.408705776288629
Ca1 Cd1 Ag2,0.4673506065253821
Ca1 Cd1 Au2,10.385349956226348
Ca1 Cd1 Ge1,5.26488340413442
Ca1 Cd1 Hg2,9.210331943210909
Ca1 Cd1 O2,5.5171509079720735
Ca1 Cd1 Pb1,6.968082608939287
Ca1 Cd1 Pd2,7.750172775819215
Ca1 Cd1 S2,4.073528646255397
Ca1 Cd1 Si1,4.015647736720963
Ca1 Cd1 Sn1,5.208581596812024
Ca1 Cd2,5.485134117099423
Ca1 Cd2 Ag1,0.433881100107609
Ca1 Cd2 As2,5.528967297469973
Ca1 Cd2 Au4,11.849897767548596
Ca1 Cd2 In1,0.3445977563086004
Ca1 Cd2 P2,4.745561921156472
Ca1 Cd2 Sb2,5.698261660440924
Ca1 Cd3,6.2198867147903565
Ca1 Cd3 O4,6.646018539056847
Ca1 Ce1 Ag2,6.271513581278075
Ca1 Ce1 C4,4.139401572294208
Ca1 Ce1 Cd2,6.003162611280101
Ca1 Ce1 Hg2,8.653402393290289
Ca1 Ce1 In2,5.917655903609759
Ca1 Ce1 Mg2,3.122141435343611
Ca1 Ce1 Mg6,2.429166541792975
Ca1 Ce1 N2,5.544442237708896
Ca1 Ce1 Pd2,7.248286854639636
Ca1 Ce1 Rh2,7.768234444921355
Ca1 Ce1 Zn2,5.32131439741053
Ca1 Cl1 F1,2.958292965979627
Ca1 Cl1 O1,2.3611572509566403
Ca1 Cl2,2.105012928411777
Ca1 Co1 Cu3 Se4,4.868640009230719
Ca1 Co1 F6,2.7578878543617047
Ca1 Co1 O3,2.495948804483074
Ca1 Co1 Se2,4.285717266992729
Ca1 Co1 Si1,3.7979712574730553
Ca1 Co2 As2,6.127880352880921
Ca1 Co2 Ge2,6.135257257605501
Ca1 Co2 N2,4.261061514328763
Ca1 Co2 P2,5.136943636407774
Ca1 Co2 Si2,4.698415004285268
Ca1 Cr1 Cu3 Se4,4.731441185587358
Ca1 Cr1 F6,2.681304623812295
Ca1 Cr1 N2,3.979072909179143
Ca1 Cr2 N2,3.830510345275589
Ca1 Cu1 As1,4.886841049654382
Ca1 Cu1 Bi1,6.789972410739993
Ca1 Cu1 Ge1,4.852301368737037
Ca1 Cu1 N1,3.527478117058082
Ca1 Cu1 O2,4.523100308390337
Ca1 Cu1 O3,4.575252255317861
Ca1 Cu1 P1,4.012066583735521
Ca1 Cu1 S2,3.4212250727259423
Ca1 Cu1 Sb1,5.281944082758291
Ca1 Cu1 Si1,3.642617809860916
Ca1 Cu2 As2,5.791248530211777
Ca1 Cu2 Ge2,5.865749804842878
Ca1 Cu2 N2,4.05054797640457
Ca1 Cu2 P2,4.821489896316851
Ca1 Cu2 Si2,4.5490749815107225
Ca1 Cu2 Sn2,6.189562857541996
Ca1 Cu3 Ni1 Se4,4.957885218865089
Ca1 Cu4 As2,6.521875454879102
Ca1 Cu5,6.536938773842889
Ca1 Dy1 Al4,4.1518855799713705
Ca1 Dy1 Hg2,9.516535420776396
Ca1 Dy1 Rh2,8.466829375203933
Ca1 Dy1 Zn2,5.894996379982031
Ca1 Dy2 Te4,5.927642840319854
Ca1 Dy3,6.641053313942232
Ca1 Er1 Al4,4.2391069644713015
Ca1 Er1 Rh2,8.693897031924244
Ca1 Er2 Te4,6.044838437010414
Ca1 Eu1 Cd2,5.73931188015888
Ca1 Eu1 Ga2,5.350148215938867
Ca1 Eu1 H6 Ru1,4.923822634641273
Ca1 Eu1 Hg2,8.393337125751742
Ca1 Eu1 In2,5.597387910275728
Ca1 Eu1 Mg2,2.8244676574999086
Ca1 Eu1 O2,6.067061069860466
Ca1 Eu1 S2,4.303396113238174
Ca1 Eu1 Si4,4.089906849527153
Ca1 Eu1 Tl2,8.238953942624633
Ca1 Eu1 Zn2,5.246080056299102
Ca1 Eu3,4.600241816295935
Ca1 F1,2.2522659226326742
Ca1 F2,2.9464464923818814
Ca1 F3,3.38140018257055
Ca1 Fe1 As1 F1,4.305460914098942
Ca1 Fe1 F6,2.677010439955049
Ca1 Fe1 O2,4.101653710579496
Ca1 Fe1 O3,4.231856237217894
Ca1 Fe1 S1 O1,3.3623401656128613
Ca1 Fe1 Si2 Rh1,5.210817684299439
Ca1 Fe1 W1 O6,5.177160652687123
Ca1 Fe2 N2,4.015868208859419
Ca1 Fe2 O4,3.632912569319496
Ca1 Fe2 P2,4.868177468422638
Ca1 Fe2 Si2,4.490344306358622
Ca1 Ga1,3.478415756968098
Ca1 Ga1 Cu1,4.790899936368336
Ca1 Ga1 Cu3 Se4,4.7507353291018495
Ca1 Ga1 Ge1 H1,4.250051088263053
Ca1 Ga1 N1,4.214223341465754
Ca1 Ga1 Si1,3.4820817999200977
Ca1 Ga1 Si1 H1,3.3408789011918723
Ca1 Ga1 Sn1 H1,4.6066508108286
Ca1 Ga2,0.0763293028630674
Ca1 Ga2 As2,4.603950556200859
Ca1 Ga2 Ni1,5.353622384465405
Ca1 Ga3 Pt1,7.398792326494303
Ca1 Ga4,5.10066675066084
Ca1 Gd1 Al1 O4,5.860341424928627
Ca1 Gd1 Cd2,6.34085717637201
Ca1 Gd1 Hg2,9.37735587949776
Ca1 Gd1 Pd2,7.730974782550309
Ca1 Gd1 Rh2,8.210243094099168
Ca1 Gd1 S2,4.859637533005469
Ca1 Gd1 Zn2,5.7862652592903405
Ca1 Ge1,3.728418518062552
Ca1 Ge1 N2,4.310539554690543
Ca1 Ge1 O3,4.928537978810958
Ca1 Ge2,4.196863587155884
Ca1 Ge2 Au2,9.039235563765684
Ca1 Ge2 Ir2,10.264282858679945
Ca1 Ge2 N2,4.509721029783836
Ca1 Ge2 Pd2,6.829803047763602
Ca1 Ge2 Rh2,7.055505926458025
Ca1 Ge2 Ru2,6.955346808927109
Ca1 H1 Br1,3.252075278723843
Ca1 H1 Cl1,2.490166513287795
Ca1 H1 Cl1 O1,2.36055806576792
Ca1 H1 F1,2.424832014765197
Ca1 H1 I1,3.649045659442954
Ca1 H1 N1,2.555174732703944
Ca1 H2,2.077239237944304
Ca1 H2 O2,2.0527877845267493
Ca1 H2 Pd1,4.992685153545931
Ca1 H3,1.949077446196649
Ca1 H3 Pd1,4.795662113389176
Ca1 Hf1 Be1,5.403094357827213
Ca1 Hf1 Mg6,3.1360185540962617
Ca1 Hf1 N2,7.781490167598614
Ca1 Hf1 O3,6.398584471307642
Ca1 Hf1 Rh2,0.7474661200744656
Ca1 Hf1 Zn1,5.936866760018873
Ca1 Hg1,7.215030383240868
Ca1 Hg1 Au2,0.8583330843650777
Ca1 Hg1 O2,6.26498627133873
Ca1 Hg1 O3,6.512779155765943
Ca1 Hg1 Pb1,8.56113638968822
Ca1 Hg1 Pd2,0.6903227503064493
Ca1 Hg2,8.065133774496399
Ca1 Hg2 Bi1,0.8236018048195557
Ca1 Hg2 Pb1,0.7968310623763107
Ca1 Hg2 Pd1,0.6881413321286247
Ca1 Hg3,10.346441289806643
Ca1 Ho1 Cd2,6.639662742719642
Ca1 Ho1 Hg2,9.652486297204543
Ca1 Ho1 O3,5.242610785694643
Ca1 Ho1 Pd2,8.021204306996397
Ca1 Ho1 Rh2,8.588092948486567