Composition,Density
Pr3 Au1,8.727317614381748
Pr3 B2 N4,6.652600623239416
Pr3 Br1,6.611973787037942
Pr3 Cd1,7.040569885019982
Pr3 Cl1,6.235130286054216
Pr3 Cr1,6.390473932106174
Pr3 Cu1,7.084571756615319
Pr3 Dy1,6.845193094202542
Pr3 Er1,6.96560683384511
Pr3 Eu1,5.70528923522074
Pr3 Ga1,6.93689926865519
Pr3 Ga1 C1,4.933520156043145
Pr3 Ga2 Ni4,8.11902771079791
Pr3 Gd1,6.739707558811084
Pr3 Hf1,7.84691307822948
Pr3 Hg1,8.342381631984038
Pr3 Ho1,6.893671626034047
Pr3 I1,7.033255263309031
Pr3 In1,6.921781138330537
Pr3 In1 C1,4.602214126400706
Pr3 In1 N1,6.954970764364853
Pr3 In1 O1,7.208331568810903
Pr3 Lu1,7.104662530920018
Pr3 Mg1,5.670729758349983
Pr3 Mg1 Al2,5.017159938734535
Pr3 Nb1,7.151545706724855
Pr3 Nd1,6.452672183735961
Pr3 Pb1,8.14377384783302
Pr3 Pb1 C1,5.111781748748781
Pr3 Pd1,7.593112710238543
Pr3 Sc1,5.758558097554473
Pr3 Si1,6.587342394435484
Pr3 Si2 C2,5.485775681048073
Pr3 Si3 Ni1,5.957533676260867
Pr3 Sm1,6.607167297654547
Pr3 Sn1,7.193475178882778
Pr3 Sn1 C1,4.552075842041963
Pr3 Sn1 N1,7.115970125778178
Pr3 Ti1,6.365738506080672
Pr3 Tl1,8.132085547265039
Pr3 Tl1 C1,5.242219788296817
Pr3 Tm1,6.996673296024083
Pr3 Y1,5.943119416127972
Pr3 Zn1,6.756406650982174
Pr3 Zr1,6.541607636831733
Pr4 Mg3 Co2,5.383376031941845
Pr5 Mg1,5.880326366342306
Pt1,20.603420149296728
Pt1 Au1,19.34096569277423
Pt1 Br3 N2,4.126831286403009
Pt1 C1,13.00236839292123
Pt1 C1 N2,5.891045081366699
Pt1 Cl2,4.940324187827959
Pt1 Cl6 O2,3.76623848062034
Pt1 I6 N2,4.767712474529697
Pt1 N1,12.704715648566529
Pt1 N2,10.535977776537214
Pt1 N2 Cl6,3.247667980106288
Pt1 N2 F6,4.13029671508248
Pt1 N2 O6,3.583875750661829
Pt1 N4 Cl2 O1,5.621203729890048
Pt1 N4 Cl2 O2,3.37198913164575
Pt1 N4 Cl4,3.882178165678465
Pt1 O1,13.11196089417104
Pt1 O2,8.36622568046456
Pt1 O3,9.105315939524148
Pt1 Pb1,14.222597316314957
Pt1 Pb1 F6,7.467299809459822
Pt1 Pb2,13.767219828937217
Pt1 Pb3,11.095843996220651
Pt1 Rh1,16.528805128598325
Pt1 Rh3,14.275076805940124
Pt1 S1,9.865040708310444
Pt1 S2,6.203726717794529
Pt1 S2 Cl6,2.8596984000515864
Pt1 S6 N2,2.021696108647938
Pt1 Se1 S1,7.976322741172995
Pt1 Se2,7.821289821454455
Pt1 W1,19.91145394563403
Pt2 O1,14.358205369757782
Pt2 Rh2 O5,10.02707265586723
Pt2 W1,20.44770330770152
Pt3 Cl1,15.72126503961539
Pt3 Cl3 F1,9.313278101697302
Pt3 F1,16.997721157500717
Pt3 O4,13.08504740515346
Pt3 Pb1,18.65125316355883
Pt3 Pb1 C1,16.250754090700863
Pt3 Rh1,18.5754301554511
Pt3 W1,20.49932403934796
Pt4 Se1 S3,9.97589658171512
Rb1,0.2711793456403286
Rb1 Ag1 Br3,4.44969067029692
Rb1 Ag1 C2,3.257339457589983
Rb1 Ag1 Cl3,3.606963466959938
Rb1 Ag1 F3,5.334248671452057
Rb1 Ag1 O1,5.346488773136841
Rb1 Ag1 O2,4.010763777622324
Rb1 Ag1 O3,5.199083434449306
Rb1 Al1,2.322925887102806
Rb1 Al1 F4,3.5453317946090768
Rb1 Al1 O2,3.5913843595519976
Rb1 Al1 O3,4.34258485798466
Rb1 As1 F6,3.4148943669598624
Rb1 As1 O3,5.660117370269648
Rb1 As2 Ir2,8.86070935919304
Rb1 As2 Rh2,6.264859851672405
Rb1 As2 Ru2,6.1138581727764
Rb1 Au1,6.321045050209391
Rb1 Au1 Br3,5.394680852468055
Rb1 Au1 C2,4.626261664168464
Rb1 Au1 Cl3,4.689505785122908
Rb1 Au1 F3,6.126285436095047
Rb1 Au1 O2,5.647350249932749
Rb1 Au1 O3,7.315133863495324
Rb1 Au1 S1,5.347005454477988
Rb1 Au1 Se1,5.618064738215369
Rb1 Au3 Se2,7.181322658792382
Rb1 Au5,12.948855975373334
Rb1 B1,2.153034284287094
Rb1 B1 H4,1.8871350844976256
Rb1 B1 O3,4.754100925449175
Rb1 Ba1 O3,3.6077114883669057
Rb1 Ba3,2.96260893776036
Rb1 Be1 O3,4.046856990886123
Rb1 Be2 B1 O3 F2,2.8147926197976028
Rb1 Be2 F5,2.727632005092586
Rb1 Bi1,5.772023762262501
Rb1 Bi1 F6,4.462876297551644
Rb1 Bi1 O2,5.959297796497104
Rb1 Bi1 O3,6.9792519861019375
Rb1 Bi1 S2,5.058445640153108
Rb1 Bi2,7.302335154435805
Rb1 Bi3,7.814451094405043
Rb1 Br1,3.1643773032979565
Rb1 Br1 O3,3.606917889625045
Rb1 Br3,3.534538291354988
Rb1 C1 N1 O1,2.745792364624027
Rb1 C2,2.1800937286676847
Rb1 Ca1 As1,3.0998226546678103
Rb1 Ca1 Br3,3.203440367813513
Rb1 Ca1 Cl3,2.411393916166868
Rb1 Ca1 F3,3.2886659237831206
Rb1 Ca1 H3,2.274957492044173
Rb1 Ca1 I3,3.511476336195656
Rb1 Ca1 Mg6,1.8445005314313825
Rb1 Ca1 O3,2.9287694502826014
Rb1 Ca1 Sb1,3.273907511038212
Rb1 Ca3,1.7192115572406017
Rb1 Cd1 F3,4.635425869723738
Rb1 Cd1 N3,4.125730369617648
Rb1 Cd1 O3,4.584545925800003
Rb1 Cd4 As3,5.573907660963002
Rb1 Ce1 S2,3.999123434065681
Rb1 Ce1 Se2,4.711637900842961
Rb1 Ce1 Te2,4.882519903645107
Rb1 Ce3,5.894188580975079
Rb1 Cl1,2.671979177096913
Rb1 Cl1 O2,2.929896060966681
Rb1 Cl1 O3,2.932751092377686
Rb1 Cl1 O4,2.611349380027844
Rb1 Co1 Cu1 S2,4.539828258753095
Rb1 Co1 Cu3 Se4,4.736873823652899
Rb1 Co1 O2,3.816085450351867
Rb1 Co2 As2,5.6207228871791886
Rb1 Co2 P2,4.614445397237875
Rb1 Co2 S2,4.727615088499618
Rb1 Co2 Se2,5.603328139984216
Rb1 Cr1 F3,4.043053107790656
Rb1 Cr1 F6,3.1302673351597257
Rb1 Cr1 O2,5.123483092494508
Rb1 Cr1 O3,5.008711280005005
Rb1 Cr1 Se2,4.80979027562448
Rb1 Cr2 S4,3.4518524142275018
Rb1 Cu1 Br3,4.626512523133676
Rb1 Cu1 C2,2.7827749963936466
Rb1 Cu1 F3,4.81679965798393
Rb1 Cu1 O1,4.784632555323565
Rb1 Cu1 O2,3.708570433122425
Rb1 Cu1 O3,4.939032944011462
Rb1 Cu1 S3,3.540904811756387
Rb1 Cu3 Ge1 Se4,4.464055164438002
Rb1 Cu3 Si1 Se4,4.259768186598023
Rb1 Cu3 Sn1 Se4,4.570170298719377
Rb1 Cu4 S3,4.987309857887929
Rb1 Cu4 Se3,5.79705958418753
Rb1 Dy1 O2,6.628256639116938
Rb1 Dy1 O3,5.325019800143493
Rb1 Dy1 S2,4.675971126324207
Rb1 Er1 O2,6.907276588243987
Rb1 Er1 O3,5.501092898164923
Rb1 Er1 S2,4.834386853493772
Rb1 Er1 Se2,5.5519884140524205
Rb1 Eu1 Cl3,3.15540753513154
Rb1 Eu1 O2,6.058478213649544
Rb1 Eu1 S2,4.183232753335504
Rb1 Eu3,3.8895311866077216
Rb1 F1,3.671084551295869
Rb1 F2,2.792928622506871
Rb1 F3,2.801996308972586
Rb1 Fe1 Cl3,3.311994338250757
Rb1 Fe1 F3,4.379630216254737
Rb1 Fe1 F4,3.5240837152392115
Rb1 Fe1 O2,3.416312374585671
Rb1 Fe1 O3,4.74818876599991
Rb1 Fe1 S2,3.158692087391408
Rb1 Fe1 Se2,4.126111775262243
Rb1 Fe2 As2,5.636025040487316
Rb1 Ga1 O2,4.13070290179809
Rb1 Gd1 O2,6.27186772351666
Rb1 Gd1 O3,5.397491439003579
Rb1 Gd1 S2,4.482359824524659
Rb1 Gd1 Se2,5.206139852600139
Rb1 Ge1,2.829923122760742
Rb1 Ge1 I1 O6,4.280133134481114
Rb1 Ge1 I3,4.234148231147551
Rb1 Ge1 O3,5.559085831884512
Rb1 Ge3,4.166013763211308
Rb1 Ge4 Pt4,10.18802696047898
Rb1 H1,2.610597082513753
Rb1 H1 F2,3.1556395062670344
Rb1 H1 O1,3.1907063400229325
Rb1 H1 S1,2.3893699456929385
Rb1 H2 N1,2.5548650631582457
Rb1 Hf1 Cu3 Se4,5.095543361281778
Rb1 Hg1 F3,5.756701494155631
Rb1 Hg1 O3,6.607560250503735
Rb1 Hg2,7.082796396387336
Rb1 Hg3,7.989501393515817
Rb1 Ho1 O2,6.767717858895761
Rb1 Ho1 O3,5.445794618591798
Rb1 Ho1 S2,4.757577759763591
Rb1 Ho1 Se2,5.477484759624477
Rb1 I1,3.3599680093693327
Rb1 I1 O3,2.3555507344549835
Rb1 I4 N3,3.7351094882462497
Rb1 In1 Br3,3.873507170713019
Rb1 In1 Cl3,3.1411940627504986
Rb1 In1 O3,4.992028227764626
Rb1 In1 Te2,4.922262233942693
Rb1 In4,5.47355804176123
Rb1 Ir1 O3,8.392088349597639
Rb1 La1 O2,5.277808008839888
Rb1 La1 S2,3.847725077762904
Rb1 La1 Se2,4.566413140398898
Rb1 Li1 Br2,3.171445281226813
Rb1 Li1 Cl2,2.4297952908156355
Rb1 Li1 Mn1 S2,3.4919125552309307
Rb1 Li1 Mn3 O4,4.051503296667863
Rb1 Li1 O3,3.1937324895524712
Rb1 Li1 S1,2.852130022728004
Rb1 Li1 Se1,3.4822038578235133
Rb1 Li1 Zn1 S2,3.3055083118256308
Rb1 Lu1 O2,7.349330349798893
Rb1 Lu1 S2,5.0827074279683
Rb1 Lu1 Se2,5.788441032920245
Rb1 Mg1,1.6814873501652898
Rb1 Mg1 F3,3.936139681669802
Rb1 Mg1 O3,3.549445501183828
Rb1 Mg2,1.7588884573463086
Rb1 Mg3,1.6496688061941192
Rb1 Mg6 B1,1.8848143202366023
Rb1 Mg6 C1,1.808557189024612
Rb1 Mg6 Co1,2.1881453197959675
Rb1 Mg6 Cu1,2.1970154053366726
Rb1 Mg6 Fe1,2.371417084449066
Rb1 Mg6 Ga1,2.361089633850614
Rb1 Mg6 Mo1,2.702088622279403
Rb1 Mg6 Nb1,2.6058613516473703
Rb1 Mg6 Ni1,2.2548443543932906
Rb1 Mg6 Sb1,2.220207967777761
Rb1 Mg6 Si1,1.9302924805128128
Rb1 Mg6 Ti1,2.1813525443745228
Rb1 Mg6 V1,2.2177300969348064
Rb1 Mg6 W1,3.488825850597112
Rb1 Mg6 Zr1,2.430135565471767
Rb1 Mn1 As1,3.6410855804364832
Rb1 Mn1 Bi1,5.536925794424969
Rb1 Mn1 Cu1 S2,4.049566798249158
Rb1 Mn1 Cu3 Se4,4.638561917999933
Rb1 Mn1 F3,4.087534151991969
Rb1 Mn1 O3,4.747142635255059
Rb1 Mn1 P1,3.37070170241512
Rb1 Mn1 Sb1,4.418032732188776
Rb1 Mn1 Se2,4.287148875739331
Rb1 Mn1 Te2,4.608333878144455
Rb1 Mo1 O3,5.722029564103488
Rb1 N1,2.8494889087498256
Rb1 N1 O3,2.4143959704481586
Rb1 N3,2.471405128032788
Rb1 Na1 Cd3 O4,5.221405110924684
Rb1 Na1 H2,2.069083317808542
Rb1 Na1 O1,3.643816662539218
Rb1 Na1 O3,2.7989997391806822
Rb1 Na1 S1,2.717555619274469
Rb1 Na2 Bi1,0.2776858976239434
Rb1 Na2 Ni1 O2,3.51783094625736
Rb1 Na2 Sb1,3.324759940819602
Rb1 Na3,1.299737363481451
Rb1 Na3 H4,1.781720902721538
Rb1 Nb1 O3,5.458641230108817
Rb1 Nb2 S4,4.565076708697339
Rb1 Nd1 O2,5.625138420315177
Rb1 Nd1 S2,4.086010644276072
Rb1 Nd1 Se2,4.818375188692616
Rb1 Nd1 Te2,5.00139093852432
Rb1 Ni1 N1,3.231936285568992
Rb1 Ni1 O2,3.8703718811326935
Rb1 Ni1 O3,4.796523065031163
Rb1 O2,1.944152134984909
Rb1 Os1 O3,8.563889217767022
Rb1 P1,2.198448636641647
Rb1 P2 Ir2,8.070033556102727
Rb1 P2 Rh2,5.428705158740571
Rb1 P2 Ru2,5.31541592685269
Rb1 Pb1 Br3,4.126661790570243
Rb1 Pb1 Cl3,3.534781906107159
Rb1 Pb1 F3,5.052775839610082
Rb1 Pd1 Br3,4.834451881087653
Rb1 Pd1 Cl3,3.946516301287615
Rb1 Pd1 F3,5.035813274523736
Rb1 Pd1 O3,5.661576907486393
Rb1 Pr1 O2,5.457854606267629
Rb1 Pr1 S2,3.974382297383304
Rb1 Pr1 Se2,4.706174717079089
Rb1 Pr3,5.174874288110795
Rb1 Pt1 O3,7.8865712781699315
Rb1 Re1,9.977378409020105
Rb1 Re1 O3,8.394151231269237
Rb1 Rh1 O3,5.940555901425838
Rb1 Ru1 F6,3.531789642161861
Rb1 Ru1 O3,6.184041013311599
Rb1 S1,0.4302673697069922
Rb1 Sb1,2.2286924759656896
Rb1 Sb1 F6,3.729353842290652
Rb1 Sb1 O2,4.412898991807144
Rb1 Sb1 O3,6.192016145047547
Rb1 Sb2,4.292221536784576
Rb1 Sb3,5.309190801050597
Rb1 Sc1 O2,4.471220806230038
Rb1 Se1,3.087828400358964
Rb1 Se1 Br3,3.987060358282739
Rb1 Si4 Pt4,9.608408101817112
Rb1 Sm1 O2,5.958120442483607
Rb1 Sm1 O3,4.915689480054075
Rb1 Sm1 S2,4.285754412288592
Rb1 Sm1 Se2,5.020442676684522
Rb1 Sm1 Te2,5.188229335860371
Rb1 Sn1 Br3,3.648343428426828
Rb1 Sn1 Cl3,2.931167509622487
Rb1 Sn1 F3,3.863580122379641
Rb1 Sn1 N1,5.305463017020182
Rb1 Sn1 O3,5.649631292418526
Rb1 Sn1 S2,4.008249704877668
Rb1 Sn3,4.8599609389920415
Rb1 Sr1 C1 O3 F1,3.439093404000905
Rb1 Sr1 Cl3,2.5040549970421497
Rb1 Sr1 O3,3.212277272107924
Rb1 Sr3,2.359346761240622
Rb1 Ta1 O3,7.622331586751525
Rb1 Tb1 O3,5.205596950118302
Rb1 Tb1 S2,4.576567615943272
Rb1 Tb1 Se2,5.306350273953973
Rb1 Te1,2.3849272459738864
Rb1 Te1 Au1,5.837093861684755
Rb1 Te1 O3,5.96841604373481
Rb1 Ti1 Cu3 Se4,4.45353044133979
Rb1 Ti1 S2,3.6465684536736056
Rb1 Tl1 Br3,4.426227354011799
Rb1 Tl1 F3,5.379426316614818
Rb1 Tl1 O1,6.266352071100513
Rb1 Tl1 O2,7.592668816362804
Rb1 Tl1 O3,6.299310050004165
Rb1 Tl2 Bi1,8.098220676148953
Rb1 Tl3,7.150006119825727
Rb1 Tm1 O2,7.0515332242919095
Rb1 Tm1 O3,5.676745723585779
Rb1 Tm1 S2,4.9106063983328205
Rb1 V1 Cu3 Se4,4.56911370870693
Rb1 V1 F3,4.111199921383689
Rb1 V1 N2,3.853054428912981
Rb1 V1 O3,5.102348844183125
Rb1 W1 O3,7.883131844505645
Rb1 Y1 Mg6,2.3405582054461376
Rb1 Y1 O2,4.863330914912301
Rb1 Y1 O3,3.9379795044291934
Rb1 Y1 S2,3.5707769170338817
Rb1 Y1 Te2,4.687510011781988
Rb1 Yb1,3.606858862206193
Rb1 Yb1 F3,5.950545201770778
Rb1 Yb1 O2,6.866048325092301
Rb1 Yb1 O3,5.432084051536336
Rb1 Yb1 S2,4.595988719468779
Rb1 Yb3,4.997091165818855
Rb1 Zn1 N1,3.0542272762100464
Rb1 Zn1 O3,4.573763042162006
Rb1 Zn4 As3,5.11431298221382
Rb1 Zn4 P3,4.2876294261409225
Rb1 Zr1 Cu3 Se4,4.432794286502498
Rb2 Au1 Br1,0.502950797307818
Rb2 Au1 I1,0.5243027777266706
Rb2 Au3,8.294197342039114
Rb2 Be4 Pt3,6.10980386872789
Rb2 Bi2 O5,6.4261685347848765
Rb2 C1 N2,3.251033623795296
Rb2 Ca1 As2,2.49349934326758
Rb2 Ca1 H4,2.3627853310798708
Rb2 Ca1 Sb2,3.1182432632217987
Rb2 Cd1 Cl4,3.0506721735688505
Rb2 Co1 F4,4.1419983707683325
Rb2 Co1 F6,3.4367053852237817
Rb2 Cr1 Br2 Cl2,3.398924682821848
Rb2 Cr1 Cl4,1.4031120126548018
Rb2 Cr1 F6,3.3629473538413337
Rb2 Cu1 Cl2 F2,3.291199852751228
Rb2 Cu1 Cl4,3.1710588300827944
Rb2 Cu1 F4,4.203954553961219
Rb2 Cu1 F6,3.595438287348001
Rb2 Fe1 F4,3.9323220505054337
Rb2 Ge1 F6,3.5695735017361576
Rb2 H6 Pt1,3.887914284144274
Rb2 Hf1 F6,4.6576190431473705
Rb2 Hf2 O5,6.696302058246346
Rb2 Hg1 Au1,5.849601284169864
Rb2 Hg1 F4,4.856736904649233
Rb2 Hg1 O2,5.169951548202897
Rb2 Hg1 Se1,0.4521481300130286
Rb2 Hg1 Te1,0.4826304389108661
Rb2 Hg7,8.47676263454847
Rb2 Ir1 F6,5.064964444392847
Rb2 Li1 S2,0.9382866190926558
Rb2 Li1 Se2,2.681028937020858
Rb2 Mg1,1.5963195588575336
Rb2 Mg1 Cl4,2.669520201925518
Rb2 Mg1 F4,3.768137174176323
Rb2 Mn1 Bi2,4.510285251026137
Rb2 Mn1 Br4,3.613335273431819
Rb2 Mn1 Cl4,2.8698270612023458
Rb2 Mn1 Cl4 O2,2.7383434503658868
Rb2 Mn1 Cl6,2.778416342861221
Rb2 Mn1 F4,3.8106635487175913
Rb2 Mn1 F5,3.3009400046805744
Rb2 Mn1 F6,3.4198087462492284
Rb2 Mn1 P2,2.306885740566813
Rb2 Mn1 Sb2,3.5297786963225466
Rb2 Mo1,2.6433206618409155
Rb2 Mo1 Br6,4.003926280116342
Rb2 Na1 Hg1,0.2908176440486243
Rb2 Na1 O2,0.8515431366205358
Rb2 Nb1 Cl6,2.813966174078673
Rb2 Nb1 F6,3.8319813948382513
Rb2 Ni1 F4,4.228222718835905
Rb2 Ni1 F6,3.594560604720648
Rb2 Ni3 S4,3.9530716689334406
Rb2 O1,2.975550518842055
Rb2 O2,3.276134037648778
Rb2 Pb1 Cl6,3.371127627385001
Rb2 Pd1,3.276505846501684
Rb2 Pd1 Br6,4.078800973276039
Rb2 Pd1 C2,3.646350981016564
Rb2 Pd1 Cl4,2.89075032812
Rb2 Pd1 Cl6,3.08424536188244
Rb2 Pd1 F6,3.836182260673407
Rb2 Pd1 I2 Br4,4.304630404538536
Rb2 Pd1 I6,4.596386465947368
Rb2 Pd1 Se2,4.710058800483002
Rb2 Pd3 S4,4.468803175323792
Rb2 Pt1 C2,4.759706023078119
Rb2 Pt1 Cl6,3.629656628830909
Rb2 Pt1 F6,5.012071280656
Rb2 Pt1 I6,4.881466736839251
Rb2 Pt1 S2,5.233950664400789
Rb2 Pt1 Se2,5.684812717260151
Rb2 Pt3 S4,6.150666465191128
Rb2 Re1 F6,4.8710101970363215
Rb2 Rh1 F6,4.126871922158328
Rb2 S1,2.7997429527932187
Rb2 Sb1 Br6,3.8400706463281415
Rb2 Sb1 Cl6,2.9129546125925088
Rb2 Se1,3.0977315066913578
Rb2 Se1 Cl6,2.789829761405473
Rb2 Si1 F6,3.255424097966651
Rb2 Sn1 Br6,3.8336091522161766
Rb2 Sn1 Cl6,2.954064587351544
Rb2 Sn1 F6,3.6319603402958966
Rb2 Sn1 Hg1 Te4,5.305613867526859
Rb2 Sn1 I6,4.191721926482639
Rb2 Sn2 O3,4.389300721780267
Rb2 Tc1 Cl6,2.8755650372482666
Rb2 Tc1 I6,4.626790449712139
Rb2 Te1,3.1080020471876995
Rb2 Te1 Br6,3.754616124356974
Rb2 Te1 Cl6,2.9185609078072337
Rb2 Te1 Se4,4.213801029074999
Rb2 Te2 Pd1,4.830611913456628
Rb2 Te2 Pt1,5.684717194847318
Rb2 Te5,4.677043954735576
Rb2 Ti1 Cl6,2.66345209250165
Rb2 V1 Cl6,2.7396794360659027
Rb2 V1 F6,3.412859983024181
Rb2 W1 Br6,4.402747950809197
Rb2 W1 Cl6,3.491749726063717
Rb2 W1 O2 F4,4.714214731791473
Rb2 Yb2 O5,5.417097209629123
Rb2 Zn1 F4,4.202869597655825
Rb2 Zr1 Cl6,2.7656566642775133
Rb2 Zr1 F6,3.725273406943464
Rb2 Zr1 N2,4.281199084811723
Rb2 Zr2 O5,4.627600053788692
Rb3 Ag1,2.618104232935321
Rb3 Al1,2.1372308756677607
Rb3 As1,3.051969563367379
Rb3 Au1 O1,4.396741042200422
Rb3 Ba1,1.9494682449734304
Rb3 Bi1,3.6006755178044667
Rb3 Br1 O1,3.369879003228484
Rb3 Br2 Cl1,3.021489711250752
Rb3 Ca1,1.659620957349191
Rb3 Cd1,2.4151268548696314
Rb3 Ce1,1.5762131085807405
Rb3 Cl1 O1,3.0168557789202524
Rb3 Co1,2.604749915833711
Rb3 Cr1,2.129370170351704
Rb3 Dy1,2.608572586003254
Rb3 Er1,2.6426084604560245
Rb3 Ga1,2.4452082689163084
Rb3 Gd1,3.6264351005199633
Rb3 Ge1,2.5942537474320213
Rb3 Hf1,3.072298186122564
Rb3 Hg1,2.986936289924527
Rb3 Ho1,2.6103638365484247
Rb3 I2 Br1,3.3007108574993445
Rb3 In1,2.600241627411109
Rb3 Ir1,4.619972087393266
Rb3 Li1,1.5591145457043567
Rb3 Lu1,2.700010636316077
Rb3 Mg1,1.7126095749447197
Rb3 Mn1,2.106748031433717
Rb3 Mo1,2.4754098859534244
Rb3 Na1,1.558421684154114
Rb3 Na1 H4,2.358031548968708
Rb3 Nb1,2.536275537659052
Rb3 Nd1,2.411162938473837
Rb3 Os1,4.013800411061121
Rb3 P1,3.172361726131065
Rb3 Pb1,3.593551017261617
Rb3 Pm1,2.46170579563804
Rb3 Pr1,2.4001689957246333
Rb3 Pt1,4.509135950722344
Rb3 Re1,3.301114938507858
Rb3 Rh1,3.8260796110723887
Rb3 Ru1,3.2146501641779355
Rb3 Sb1,3.080716587328593
Rb3 Sb2 Au3,6.424546943201895
Rb3 Si1,2.399440215821586
Rb3 Sm1,2.502291496911429
Rb3 Sn1,3.0804906010674102
Rb3 Sr1,1.769823553917926
Rb3 Ta1,3.3916512849263123
Rb3 Tb1,2.548035286432636
Rb3 Tc1,2.7554345213314835
Rb3 Ti1,2.0209119697269258
Rb3 Tl1,3.145306440464492
Rb3 Tm1,2.675351457445288
Rb3 V1,2.219645845324896
Rb3 W1,3.310411196425864
Rb3 Y1,2.150484957912394
Rb3 Yb1,2.3302577282082293
Rb3 Zn1,2.145217037470466
Rb3 Zr1,2.391768912891758
Rb4 Br2 O1,3.199303630197876
Rb4 C1,2.098676073767583
Rb4 C1 O4,3.101500755830584
Rb4 I2 O1,3.419683638725085
Rb4 N1 O1,3.564354437466432
Rb5 Bi4,4.735139240053902
Rb5 Sb4,3.6947769607523657
Re1,20.455120497629814
Re1 Ag2 Cl6,4.314390775990357
Re1 Ag3,12.256858376843354
Re1 As3,10.34039721934065
Re1 Au3,18.82276927634531
Re1 B1 Mo1,13.500459203280675
Re1 B1 W1,17.41249312713184
Re1 B2,12.483263837280782
Re1 B3,11.09932795500974
Re1 Bi1 O3,11.299064151299625
Re1 Br1,12.34611366669478
Re1 Br6 N2,4.1658698273717
Re1 C1,13.09892234175641
Re1 C2,11.960563422508114
Re1 Cl6,3.443352296746675
Re1 F6,3.725247730195509
Re1 Ge1 As1,11.12581194262138
Re1 Ge2,11.175214981246318
Re1 H3,12.908433016931417
Re1 Ir1,21.361357429094863
Re1 Ir3,21.595867988779684
Re1 Mo1,15.093827410702431
Re1 Mo1 C2,12.232174486659146
Re1 Mo1 W2,1.3969521272413898
Re1 Mo2 C1,12.080403786643936
Re1 Mo3,12.423886569641404
Re1 N1,13.46755676825555
Re1 N1 Cl4,3.571019159971616
Re1 N2,10.3599594054302
Re1 N2 Cl6,2.8184986548012447
Re1 Ni1 N2,11.63350622899683
Re1 O2,10.893177295164286
Re1 O3,7.10813748506322
Re1 Os1,21.26213052600672
Re1 Os1 Ru1,15.27885767958131
Re1 Os3,21.66689974227436
Re1 P3,8.527854057529911
Re1 Pb3,13.4519865420647
Re1 Pt1,20.80120077367645
Re1 Rh3,14.30746410833262
Re1 Ru1 Br1,10.805356470956506
Re1 Ru1 Cl2,10.26608521392767
Re1 Ru3,14.35273742190132
Re1 S2,7.614330341760835
Re1 Sb1 N1,10.56447316824698
Re1 Sb1 O3,9.301447388489194
Re1 Si1,12.82847040383182
Re1 Si1 Tc2,0.9155796998002806
Re1 Si2,10.0194755667805
Re1 Si2 Tc1,0.8167544404208241
Re1 Si4 Mo1,8.099405020855174
Re1 Si4 W1,9.882093903495722
Re1 Sn1 Ge1,10.457438076830655
Re1 Sn2 Se1,10.30441662654928
Re1 Sn3,10.340862423221038
Re1 Tc1,15.915859980997434
Re1 Tc3,13.571379680661046
Re1 Te1,12.477076873200366
Re1 Te1 N1,9.416259407485075
Re1 Te1 O3,9.34888621163804
Re1 W1 O6,6.873149641577776
Re1 W2,19.29240960912995
Re1 W2 Br1,15.849537990284183
Re1 W2 C1,17.5279294525646
Re1 W3,18.969668786751097
Re1 W4,19.17754443730089
Re2 Au1 Se1,16.242629734641746
Re2 C1,18.10097140478265
Re2 N1,18.259046829748964
Re2 P1 Cl1,11.942522729531518
Re2 Pt1 Rh1,18.26148792513116
Re2 Rh2 O5,10.589039131537582
Re2 Ru1 Br1,14.888903045940932
Re3 B1,18.73476141756205
Re3 Bi1,16.210509784660637
Re3 C1,17.35235220501805
Re3 F1,16.840761108307284
Re3 Ge1,17.482113704496808
Re3 H1,17.280592839870263
Re3 Ir1,20.870529013635
Re3 Mo1,17.65663080297061
Re3 N1,18.95021586172163
Re3 N5,8.735160135185044
Re3 Ni1,18.34697208069989
Re3 Os1,20.894179274689
Re3 P4,10.951742365204982
Re3 Pb1,18.77471280546693
Re3 Pd1,18.44516637258652
Re3 Pt1,20.64734008576563
Re3 Rh1,18.526981397017543
Re3 Ru1,18.481168009142017
Re3 Sb1,17.295214707425224
Re3 Si1,16.84951361873153
Re3 Sn1,17.28442005144722
Re3 Tc1,18.228597606150466
Re3 W1,19.9840009918906
Rh1,10.348364365248235
Rh1 Br1,7.089453982175336
Rh1 Br3,4.757663080540303
Rh1 C1,7.834406991237518
Rh1 Cl2,4.7820986854262735
Rh1 Cl3,3.4898426924280828
Rh1 F3,3.843320234978256
Rh1 F6,2.678946593285883
Rh1 I1,7.065742320932789
Rh1 I2,6.891490286081067
Rh1 I3,5.615718481343815
Rh1 N1,7.865982120052272
Rh1 N2,7.630936873524904
Rh1 O2,6.886608286263032
Rh1 O2 F6,2.966225920313049
Rh1 O3,2.409624578404353
Rh1 Pb1,11.845276737698486
Rh1 Pb2,12.445655994001733
Rh1 S1,6.071555994329905
Rh1 Se1,8.658113691953394
Rh2 W2 C1,14.43035450922864
Rh3 Br1,10.19661512717352
Rh3 F1,10.02293261335032
Rh3 Pb1,13.100105734041282
Rh3 Pb2 S2,9.49474592784569
Rh3 Pb2 Se2,10.091893389265984
Rh3 Se1,10.655006293373823
Rh3 W1,13.83568242201397
Ru1,11.991576208997964
Ru1 Au3,16.51170718279011
Ru1 Br3,4.413499916954566
Ru1 C1,7.88981878190781
Ru1 C1 N2,5.807071647818998
Ru1 Cl2 O1,3.71510294386614