Composition,Density
Yb1 Ho1 Pt2,14.667988435738728
Yb1 Ho1 Rh2,11.768624354615964
Yb1 Ho1 Zn2,8.669384382391224
Yb1 Ho2 Se4,6.870109308030561
Yb1 Ho3,8.633529906073534
Yb1 I2,5.261082176752515
Yb1 In1,8.503933306730353
Yb1 In1 Ag2,9.630575977405368
Yb1 In1 Au1,11.29337979094242
Yb1 In1 Au2,13.129376237408415
Yb1 In1 Cu4,9.746908052366662
Yb1 In1 Hg2,11.62455936188396
Yb1 In1 Ni4,10.254676059147412
Yb1 In1 O3,7.9754771294907005
Yb1 In1 Pd1,9.708397582497536
Yb1 In1 Pd2,10.84650733759475
Yb1 In1 Pt1,12.002168437597565
Yb1 In1 Rh2,11.66134280380052
Yb1 In2,8.296096874555632
Yb1 In2 Au1,10.385683268323753
Yb1 In2 Ni1,8.995005213005252
Yb1 In2 Pd1,9.23967251089304
Yb1 In2 Pt1,10.821642648781005
Yb1 In2 Rh1,9.443518502007183
Yb1 In3,8.344890310707601
Yb1 In5 Co1,8.348149091373244
Yb1 In5 Ir1,9.392933712073416
Yb1 In5 Rh1,8.504437573938718
Yb1 Ir1,16.045005160763655
Yb1 Ir2,17.298616580791386
Yb1 Lu1 Al4,6.243728116004924
Yb1 Lu1 Hg2,12.445361170270065
Yb1 Lu1 In2,9.02757653578248
Yb1 Lu1 Pd2,11.3537858469886
Yb1 Lu1 Pt2,15.306375678692673
Yb1 Lu1 Rh2,12.320502751163616
Yb1 Lu1 S1 O2,8.276364043273118
Yb1 Lu1 Tl2,11.511259768632724
Yb1 Lu2 Se4,7.294434990288042
Yb1 Mg1,5.306192456011083
Yb1 Mg1 Cd2,7.299841716893327
Yb1 Mg1 Cu4,8.157978692195064
Yb1 Mg1 Ga4,6.762941345900546
Yb1 Mg1 Hg2,10.519590588603611
Yb1 Mg1 In2,7.03418635743576
Yb1 Mg1 O3,6.939250705746186
Yb1 Mg1 Pb1,7.956878996899639
Yb1 Mg1 Rh2,10.04620718977706
Yb1 Mg1 Sn1,6.571967409614069
Yb1 Mg1 Tl2,9.623935120976771
Yb1 Mg2,4.396274595964053
Yb1 Mg2 Bi2,6.942900892473457
Yb1 Mg2 Sb2,5.38660352092442
Yb1 Mg3,3.7811133886348585
Yb1 Mn1 Cu1 P2,6.838389904157568
Yb1 Mn1 Ge1,8.39402735704681
Yb1 Mn1 Sb2,7.943014431563076
Yb1 Mn2 As2,7.541389806261016
Yb1 Mn2 Bi1 Sb1,7.577474212364052
Yb1 Mn2 Ge2,8.269790497165483
Yb1 Mn2 Sb2,6.7092928455669565
Yb1 Mn2 Si2,7.05191076191353
Yb1 Mn3,8.394137332203302
Yb1 N1,10.38460105481792
Yb1 N2,8.325276530096303
Yb1 Nb1 O3,8.02814413662907
Yb1 Nb1 Ru2,11.624328333707354
Yb1 Nb3,8.71025598628794
Yb1 Nd1 Ag2,8.655234881419739
Yb1 Nd1 Au2,12.125923922897243
Yb1 Nd1 Cd2,8.004150858760244
Yb1 Nd1 Hg2,10.916653675925357
Yb1 Nd1 Mg2,5.063990315603467
Yb1 Nd1 O2,9.787586141542397
Yb1 Nd1 O3,8.407471151446897
Yb1 Nd1 Pd2,9.809185253284031
Yb1 Nd1 Pt2,13.341400022626631
Yb1 Nd1 Rh2,10.626538766780117
Yb1 Nd1 Zn2,7.629529143985114
Yb1 Nd3,7.079539754821169
Yb1 Ni1,9.698867685463222
Yb1 Ni1 C2,8.822650442500018
Yb1 Ni1 H3,9.326303705713832
Yb1 Ni1 O3,8.951977304241092
Yb1 Ni1 Sb1,9.05395407131676
Yb1 Ni2,11.31495239080846
Yb1 Ni2 B2 C1,8.356631556239703
Yb1 Ni2 Ge2,8.931215266026246
Yb1 Ni2 P2,8.431755002484284
Yb1 Ni2 Sn1,10.51117692501404
Yb1 Ni4 Au1,12.268862043774778
Yb1 Ni4 Sn1,10.436932254385235
Yb1 Ni5,9.806317223635483
Yb1 O1,11.722991481629752
Yb1 O1 F1,9.067120032936437
Yb1 O2,9.117022446110584
Yb1 O3,7.304507079764449
Yb1 Os3,19.49772438101234
Yb1 P1,6.944363697535891
Yb1 P1 Pt1,11.241802840744027
Yb1 P2 Pd2,8.917532656454876
Yb1 P2 Ru2,9.12581571648937
Yb1 P3,6.472347004841311
Yb1 Pb1,10.84349254336546
Yb1 Pb1 Au2,13.97409477881879
Yb1 Pb3,11.10017329704747
Yb1 Pd1,10.433436264859829
Yb1 Pd1 O3,8.933591736154968
Yb1 Pd1 Pb1,11.433010730319875
Yb1 Pd2,9.938581643440424
Yb1 Pd2 Au1,13.420697433685698
Yb1 Pd2 Pb1,12.24589300180801
Yb1 Pd3,12.004028402018768
Yb1 Pm1 Ag2,8.81707644715771
Yb1 Pm1 Au2,12.209334374702904
Yb1 Pm1 Cd2,8.113184295248661
Yb1 Pm1 Cu2,8.633429021984572
Yb1 Pm1 Hg2,11.052180005498863
Yb1 Pm1 Pd2,9.980083994151876
Yb1 Pm1 Pt2,13.549472292249314
Yb1 Pm1 Rh2,10.671856260254437
Yb1 Pm1 Zn2,7.781862623811331
Yb1 Pm3,7.165337342978408
Yb1 Pr1 Ag2,8.482356051115168
Yb1 Pr1 Au2,11.8936230456389
Yb1 Pr1 Cd2,7.855632523494812
Yb1 Pr1 Hg2,10.725835372712384
Yb1 Pr1 Mg2,4.961437278036547
Yb1 Pr1 O2,9.549168504982726
Yb1 Pr1 Pd2,9.57138527922708
Yb1 Pr1 Rh2,10.376205998189748
Yb1 Pr1 Se2,7.393652813156488
Yb1 Pr1 Zn2,7.471104462882051
Yb1 Pr3,6.761903736633318
Yb1 Pt1,13.941772951811256
Yb1 Pt1 O3,11.082076237146085
Yb1 Pt2,16.64651366031074
Yb1 Pt3,18.68523617589556
Yb1 Re1 O3,11.14800041508615
Yb1 Rh1,12.51302465569802
Yb1 Rh2,11.925209187458986
Yb1 Rh2 Pb1,13.297863196343291
Yb1 Rh3 C1,11.592493542026816
Yb1 Ru1,12.528476773180078
Yb1 Ru3 C1,11.49676630366291
Yb1 S1,7.498295113038553
Yb1 S1 Br1,0.3229176153984281
Yb1 S2,6.0164150122469895
Yb1 Sb1,7.535915707483732
Yb1 Sb1 Au1,11.094725870408093
Yb1 Sb1 Pd1,8.282460248409143
Yb1 Sb1 Pd2,10.974240077749103
Yb1 Sb1 Pt1,11.16146143204116
Yb1 Sb2,8.212572965068963
Yb1 Sc1 Al4,4.6089985006601895
Yb1 Sc1 O2,8.612506360666817
Yb1 Sc1 O3,6.655432123073923
Yb1 Sc1 Rh2,10.0447628234079
Yb1 Se1,6.5729711098133645
Yb1 Se1 I1,0.1960460896530476
Yb1 Se2,7.813193875554663
Yb1 Si1,7.1375313948370245
Yb1 Si1 Ag1,8.298114182190321
Yb1 Si1 Au1,10.806444515796812
Yb1 Si1 O3,9.159461190122546
Yb1 Si2,6.315081243772704
Yb1 Si2 Ag2,7.673185853593172
Yb1 Si2 Au2,10.834396872167318
Yb1 Si2 Ni1,7.233186811265151
Yb1 Si2 Ni2,7.637768580329173
Yb1 Si2 Os2,11.893817002868246
Yb1 Si2 Pd2,8.379621836745386
Yb1 Si2 Pt2,11.713703671020465
Yb1 Si2 Rh2,8.6497772189612
Yb1 Si2 Ru2,8.51963414984932
Yb1 Si3 C4,5.16412705822292
Yb1 Sm1 Ag2,9.044029357847588
Yb1 Sm1 Au2,12.491436980677255
Yb1 Sm1 Cd2,8.266398879846417
Yb1 Sm1 Hg2,11.258220140726168
Yb1 Sm1 Pd2,10.093623306150835
Yb1 Sm1 Pt2,13.7728290272557
Yb1 Sm1 Rh2,11.008151268731435
Yb1 Sm1 S2,7.146675247485917
Yb1 Sm1 Zn2,7.953268031774733
Yb1 Sm3,7.4706185070531985
Yb1 Sm3 S4,6.88672243622239
Yb1 Sn1,8.889744215044427
Yb1 Sn1 Au2,13.095672067825568
Yb1 Sn1 Hg1,10.31819273008926
Yb1 Sn1 Ir1,12.477264642107128
Yb1 Sn1 O3,8.608940673960896
Yb1 Sn1 Pd1,10.013531623593584
Yb1 Sn1 Pd2,10.98747386739332
Yb1 Sn1 Pt1,12.239829265857855
Yb1 Sn1 Rh1,10.278059471993169
Yb1 Sn1 Rh2,11.844467551298171
Yb1 Sn2 Pd1,9.20760818750108
Yb1 Sn3,8.29844575436073
Yb1 Ta1,13.06975660164892
Yb1 Ta1 O3,10.403941259635385
Yb1 Ta1 Ru2,13.913388402423402
Yb1 Tc1 O3,8.909878086748487
Yb1 Te1,7.760180781831621
Yb1 Te2,7.811755933860036
Yb1 Te4 Pb3,7.786072737202009
Yb1 Ti1 O3,7.805916140066132
Yb1 Tl1,10.898283057935288
Yb1 Tl1 Cd1,10.067980533913808
Yb1 Tl1 Cu4,11.12604413869952
Yb1 Tl1 Hg2,12.47526034008898
Yb1 Tl1 Pd1,11.57957213527392
Yb1 Tl1 Pd2,12.443508691736412
Yb1 Tl1 S2,7.488978985550222
Yb1 Tl1 Se2,7.95552674057531
Yb1 Tl2 Cd1,10.776708157784894
Yb1 Tl3,11.376067135636458
Yb1 Tm1 Hg2,12.17882938878886
Yb1 Tm1 O3,8.485646600281889
Yb1 Tm1 Pd2,11.098192922338528
Yb1 Tm1 Pt2,14.994091619222385
Yb1 Tm1 Rh2,12.043475419073513
Yb1 Tm1 S2,8.016356186702751
Yb1 Tm1 Se2,8.662908164065692
Yb1 Tm1 Zn2,8.719899017769299
Yb1 Tm2 Se4,7.066727369612805
Yb1 Tm3,8.967746178063003
Yb1 W1 O3,10.25492365939475
Yb1 Y1 Al4,4.949793924931186
Yb1 Y1 Cd2,7.547463916533815
Yb1 Y1 Hg2,10.623214449380717
Yb1 Y1 Pd2,9.268549286502733
Yb1 Y1 Pt2,12.988428816413505
Yb1 Y1 Rh2,9.942863716916884
Yb1 Y1 Zn2,7.062814280176913
Yb1 Y2 Se4,5.525303582742466
Yb1 Y3,5.49240650036997
Yb1 Zn1,7.027284454896566
Yb1 Zn1 Au2,13.299856800645363
Yb1 Zn1 Cu1 As2,7.441770545202968
Yb1 Zn1 Cu1 P2,6.635370530110305
Yb1 Zn1 Cu1 Si2,7.101834635622897
Yb1 Zn1 Ga1,8.215468536386052
Yb1 Zn1 Ga3,7.615986993458426
Yb1 Zn1 Ge1,8.423464864143458
Yb1 Zn1 In1,8.203736739402476
Yb1 Zn1 O3,8.45502238151807
Yb1 Zn1 Pb1,9.971041501224937
Yb1 Zn1 Pd2,10.866651116569582
Yb1 Zn1 Rh2,11.821840531827348
Yb1 Zn1 Sn1,8.452285131976804
Yb1 Zn2,8.161332883473122
Yb1 Zn2 As2,7.136176291896344
Yb1 Zn2 Ga2,7.7058494840054195
Yb1 Zn2 Ge2,7.68906159305891
Yb1 Zn2 P2,6.373592867983431
Yb1 Zn2 Sb2,7.02435227133885
Yb1 Zn2 Si2,6.6565484695751325
Yb1 Zn3,7.883458909769751
Yb1 Zr1 Ir2,14.720586516026586
Yb1 Zr1 Rh2,10.772967001492734
Yb2 Ag1 Au1,11.492983174354382
Yb2 Ag1 Bi1,10.010621878888598
Yb2 Ag1 Ge1,9.363445673820582
Yb2 Ag1 Hg1,10.71658442645826
Yb2 Ag1 Ir1,12.82959921150913
Yb2 Ag1 Pb1,10.229840074113342
Yb2 Ag1 Pd1,10.25429946226452
Yb2 Ag1 Pt1,12.216063119861936
Yb2 Ag1 Rh1,10.972065062874274
Yb2 Ag1 Sb1,9.06506237289176
Yb2 Ag1 Sn1,9.109716255057428
Yb2 Al1 Ni2,8.739711813553788
Yb2 Al2 O5,8.17520389657593
Yb2 Al3 Cu1,6.7814908894816375
Yb2 Al3 Ga1,6.612121583126581
Yb2 As1 Au1,11.13891146278576
Yb2 Bi1 Au1,11.613116671412424
Yb2 Br2 F1,2.587152021578357
Yb2 Br2 O1,1.590471479048139
Yb2 C1,8.187823435085155
Yb2 C1 N2 O2,6.832277258120079
Yb2 Cd1 Ga1,8.672306747616407
Yb2 Cd1 Ge1,8.913488808688726
Yb2 Cd1 Hg1,10.168233551421288
Yb2 Cd1 In1,8.62299938708538
Yb2 Cd1 Pb1,9.743178999594129
Yb2 Cd1 Sn1,8.708338161392133
Yb2 Cl2 F1,2.0528674069743658
Yb2 Co2 O5,8.905349155428032
Yb2 Cr2 C3,8.352252011550608
Yb2 Cu1 Ge6,7.765369886730394
Yb2 Cu1 Ir1,12.94105135944921
Yb2 Cu1 Pd1,10.312157280422614
Yb2 Cu1 Rh1,11.195219347613172
Yb2 Cu1 Sb3,0.2829005170238542
Yb2 Fe3 Cu1,10.11437165075068
Yb2 Ga1 Hg1,10.244032220451448
Yb2 Ga1 Ni2,9.632141012569816
Yb2 Ge1 Au1,11.22874183544282
Yb2 Ge3,7.472627127996907
Yb2 Ge3 Pd1,8.5741210600035
Yb2 Ge6 Pd1,7.843250014348589
Yb2 Ge6 Pt1,8.622671812705198
Yb2 H6 Ru1,8.423759661666299
Yb2 Hg1 Bi1,10.785089479749024
Yb2 Hg1 Ge1,10.471772687409777
Yb2 Hg1 Pb1,11.146399168423056
Yb2 I2 F1,3.128876314212845
Yb2 I2 O1,1.8365783503917
Yb2 In1 Ga1,8.366938006251944
Yb2 In1 Hg1,10.097143946033505
Yb2 In1 Pb1,9.651071156008456
Yb2 In1 Sn1,8.616970769103405
Yb2 Mg1,5.943380327283399
Yb2 Mg1 In1,7.022356028763815
Yb2 Mg1 Tl1,8.285910026682563
Yb2 Nd2 O5,7.375389693221402
Yb2 Ni1 Ge6,7.82484561379697
Yb2 Ni1 Sb2,8.089251742497732
Yb2 Pd1 Au1,12.25758498698048
Yb2 Pd1 Pt1,13.24014807965126
Yb2 Pd1 Rh1,11.804650236054796
Yb2 Pt1 Au1,14.184234472038458
Yb2 Rh1 Au1,13.006094087907396
Yb2 Ru1,9.03328427474036
Yb2 S1 O2,6.990459240732696
Yb2 Sb1 Au1,10.708962071582572
Yb2 Se1 O2,8.130068626630655
Yb2 Si3 Pt3,10.739978774570362
Yb2 Sn1,8.771931394068135
Yb2 Sn1 Hg1,10.122955812315473
Yb2 Te1 O2,7.954665040347362
Yb2 Te3,0.2832694780748558
Yb2 Tl1 Cd1,9.882336721749075
Yb2 Tl1 Ga1,9.715728587920845
Yb2 Tl1 Hg1,11.498274165533529
Yb2 Tl1 In1,9.574306640888995
Yb2 Tl1 Pb1,10.708543322804609
Yb2 Tl1 Sn1,9.844405672201312
Yb2 Tl1 Zn1,9.821427610491943
Yb2 W1 N2 O3,9.651677309789315
Yb2 Zn1 Ag1,8.923896814600484
Yb2 Zn1 Ga1,8.50810581612051
Yb2 Zn1 Ge1,8.644192141113228
Yb2 Zn1 Hg1,10.220721601660127
Yb2 Zn1 In1,8.461405840688025
Yb2 Zn1 Ir1,12.25838969469925
Yb2 Zn1 Pb1,9.57908760025528
Yb2 Zn1 Rh1,10.35424578800944
Yb2 Zn1 Sn1,8.402690810157203
Yb3 Ag1,8.305842445800765
Yb3 Al1,7.575289114199674
Yb3 Al1 C1,7.262485933536656
Yb3 Cd1,7.917487810447836
Yb3 Ce1,6.950547440495217
Yb3 Cr1,7.531551993953816
Yb3 Cu1,8.40196509964457
Yb3 Dy1,7.645464481088557
Yb3 Er1,7.776702224990039
Yb3 Eu1,6.701088442550167
Yb3 Ga1 C1,8.089954468906376
Yb3 Ge5,8.14279766699918
Yb3 H1,6.634981504510511
Yb3 Hf1,9.109799971938678
Yb3 Ho1,7.717251459280074
Yb3 In1,8.420091401857452
Yb3 In1 C1,8.263419179438648
Yb3 In3 Ge2 Au1,9.484588417906668
Yb3 Lu1,7.899404848586652
Yb3 Mg1,6.34812608837542
Yb3 Mn1,7.954588721763829
Yb3 Mo1,9.449801604502255
Yb3 Nb1,8.279440426788177
Yb3 Nd1,7.360087983437091
Yb3 Os1,12.86163949902286
Yb3 P1,9.094497407534387
Yb3 Pb1,9.668697034310666
Yb3 Pb1 C1,9.775802555429657
Yb3 Pb1 O1,11.176333980633885
Yb3 Pm1,7.402183456962882
Yb3 Pr1,7.258124796480163
Yb3 Re1,11.695744789058752
Yb3 Ru1,10.898526361164324
Yb3 S2 F4,7.948954587830698
Yb3 Sc1,6.709053793921127
Yb3 Se4,6.849373779834175
Yb3 Si1,8.562025815416762
Yb3 Si5,6.249883487759959
Yb3 Sm1,7.308346198699378
Yb3 Sn1,8.820301061015934
Yb3 Sn1 C1,5.214653548195074
Yb3 Sn1 O1,10.013248917747966
Yb3 Ta1,9.888648549941792
Yb3 Tc1,10.37802616385364
Yb3 Ti1,7.257530305366131
Yb3 Tl1 C1,5.760744397932191
Yb3 Tm1,7.758543367803331
Yb3 V1,7.603381584024961
Yb3 W1,10.729316063841951
Yb3 Y1,6.777459713208183
Yb3 Zr1,7.598872422152114
Yb4 As2 O1,9.128306971949842
Yb4 Pt3 Au1,13.506991892428696
Yb4 Sb2 O1,9.03666804409514
Yb4 Y1,6.817951335552024
Yb5 Mg1,6.565237035214441
Zn1,6.981484851061407
Zn1 Ag1,8.610236049105016
Zn1 Ag1 As1,6.783175698491685
Zn1 Ag1 Au2,1.0515966333511628
Zn1 Ag1 F3,5.658775990415144
Zn1 Ag1 N1,6.82867744232152
Zn1 Ag1 Pd2,0.7661051597329899
Zn1 Ag2 Ge1 S4,4.523613005903234
Zn1 Ag2 Sn1 S4,4.633644483182918
Zn1 Ag2 Sn1 Se4,5.415000277997176
Zn1 Ag3,9.35601514417122
Zn1 As1 Pt5,16.39845011892201
Zn1 As3,6.438212059012006
Zn1 Au1,13.367389726023037
Zn1 Au1 O3,8.463478774783361
Zn1 Au4,16.10196206669109
Zn1 B1 O3,5.34742323855386
Zn1 B1 Se2,5.676183986334018
Zn1 B2 Ir2,13.734810405685185
Zn1 Bi1,7.474214289757465
Zn1 Bi1 F6,4.844672346690829
Zn1 Bi1 O3,8.945928088642482
Zn1 Bi3,9.89812477416886
Zn1 Br2,3.9737186592942937
Zn1 Br6,0.220361554339198
Zn1 C2 S2 O2 F2,1.987220948633721
Zn1 Cd1 Ag2,0.6486425366589922
Zn1 Cd1 Au2,0.981358956045918
Zn1 Cd1 O2,5.936734617530727
Zn1 Cd1 Pt2,14.62977188486976
Zn1 Cd1 Rh2,0.7384714401159302
Zn1 Cd1 S2,4.349394535176201
Zn1 Cd1 Se1 S1,4.807830876094147
Zn1 Cd1 Se2,5.207338617807023
Zn1 Cd1 Te1,6.280620843200134
Zn1 Cd1 Te1 Se1,5.339715965289199
Zn1 Cd1 Te2,5.459842852327616
Zn1 Cd2 N2,6.03446274652882
Zn1 Cd3 S4,4.48702970654378
Zn1 Cd3 Se4,5.281713229500189
Zn1 Cl2,2.7483743705839982
Zn1 Cl3,2.3545417076245005
Zn1 Co1,8.407542031358526
Zn1 Co1 Cu3 Se4,5.753678841860413
Zn1 Co1 F6,3.635593157898964
Zn1 Co2,8.574801716631919
Zn1 Co2 Ge1,8.972842824206822
Zn1 Co2 N2,5.900039240386355
Zn1 Co2 Sn1,0.6936692114123257
Zn1 Co3,8.736384399774375
Zn1 Co3 C1,8.082783775486932
Zn1 Cr1 Cu3 Se4,5.574200426021943
Zn1 Cr1 F6,3.6519876262001465
Zn1 Cr1 Rh2,0.7750541513581015
Zn1 Cr2 N2,4.498750795586215
Zn1 Cr3,7.033960433663866
Zn1 Cu1,8.191559501478206
Zn1 Cu1 Au2,13.891144450375132
Zn1 Cu1 Mo1,7.264653339090789
Zn1 Cu1 N1,5.906290059376354
Zn1 Cu1 Ni2,8.797684270072494
Zn1 Cu1 O3,5.638793192137559
Zn1 Cu1 Pd2,10.129044852823442
Zn1 Cu1 Pt2,15.225570781739842
Zn1 Cu2,8.475159839059959
Zn1 Cu2 Au1,0.9750020342170472
Zn1 Cu2 Ge1 S4,4.288661968644927
Zn1 Cu2 Ge1 Se2 S2,4.9205119790442895
Zn1 Cu2 Ge1 Se4,5.347893692573084
Zn1 Cu2 Ge1 Te4,5.639759653596719
Zn1 Cu2 N2,5.434347069853924
Zn1 Cu2 Ni1,8.684014182639356
Zn1 Cu2 Si1 Se4,5.078185669069057
Zn1 Cu2 Si1 Te4,5.556792565612112
Zn1 Cu2 Sn1 S4,4.484004671190757
Zn1 Cu2 Sn1 Se1 S3,4.776596122643641
Zn1 Cu2 Sn1 Se2 S2,5.030281410516711
Zn1 Cu2 Sn1 Se3 S1,5.2345127945509375
Zn1 Cu2 Sn1 Se4,5.446399191262774
Zn1 Cu2 Sn1 Te4,5.799023165164255
Zn1 Cu3,8.575424177364654
Zn1 Cu3 Ni1 Se4,5.85536629886495
Zn1 F2,4.6748798360575465
Zn1 Fe1,7.832484482867597
Zn1 Fe1 Bi1,7.897936844346596
Zn1 Fe1 Co2,0.6009657245043614
Zn1 Fe1 F6,3.588375244884169
Zn1 Fe1 Pb1,9.084585656876104
Zn1 Fe1 Rh2,9.890679743599044
Zn1 Fe1 S2,3.879822094134185
Zn1 Fe1 Sb1,6.707140286187257
Zn1 Fe1 Sb2,7.557966065415023
Zn1 Fe2 N2,5.561321171707744
Zn1 Fe3,7.972423533482885
Zn1 Fe3 C1,7.573775786132459
Zn1 Ga1 Ag2,0.6954876815112087
Zn1 Ga1 As1 Se1,5.068686637454249
Zn1 Ga1 Co2,0.6632977640165753
Zn1 Ga1 Cu1 Se3,5.259855816403292
Zn1 Ga1 Cu2,0.744966736907927
Zn1 Ga1 Cu3 Se4,5.568077458644645
Zn1 Ga1 Ir2,15.337041330678003
Zn1 Ga1 N1 O1,5.622092376426326
Zn1 Ga1 Ni2,0.8122123275239245
Zn1 Ga1 O3,5.420391503207033
Zn1 Ga1 P1 S1,3.9872965754916327
Zn1 Ga1 P1 Se1,4.587516661432909
Zn1 Ga1 Pd2,0.7793886402810787
Zn1 Ga1 Rh2,10.192687328933598
Zn1 Ga2 S4,3.653629382138953
Zn1 Ga2 Se4,4.915218017446364
Zn1 Ga2 Te4,5.356208836404148
Zn1 Ga3,6.327809985998714
Zn1 Ge1 As1 P1,4.612599794774058
Zn1 Ge1 As2,5.055679037010112
Zn1 Ge1 Ir2,1.1992919508878248
Zn1 Ge1 N2,5.762296410778751
Zn1 Ge1 O3,5.9917927255139976
Zn1 Ge1 P2,4.0438665315488285
Zn1 Ge1 Rh2,0.8128256081903343
Zn1 Ge1 Ru2,0.7871078624197834
Zn1 Ge3,6.242500911023141
Zn1 H1,5.333619175564023
Zn1 H2 O2,3.922629970444053
Zn1 Hg1 S2,5.841199157862726
Zn1 Hg1 Se2,6.447857836988403
Zn1 Hg1 Te2,6.511061705811904
Zn1 Hg3,10.860867411297365
Zn1 I2,4.692838459191908
Zn1 I6,0.2389276309856516
Zn1 In1 Cu3 Se4,5.673171588242709
Zn1 In1 Ga1 O4,6.11702418673308
Zn1 In1 Ge1 As3,5.1701478422193805
Zn1 In1 Ir2,1.065983914394973
Zn1 In1 Pd2,0.728903582759029
Zn1 In1 Rh2,0.7506813567639995
Zn1 In1 Sn1 As3,5.2860226563971295
Zn1 In2 Ge1 As4,6.370245958364314
Zn1 In2 S4,4.16286119709467
Zn1 In2 Se4,5.09385753704606
Zn1 In2 Sn1 As4,5.293040984305347
Zn1 In2 Te4,5.439163221277789
Zn1 In3,6.768939592075501
Zn1 In3 As1 Se4,5.013405840000513
Zn1 Ir1,14.940632120728663
Zn1 Ir1 O3,8.509445632291017
Zn1 Mo1 F6,3.760950177417029
Zn1 Mo1 N2,7.272631172143723
Zn1 Mo1 Ru2,0.8786188670680496
Zn1 Mo2 Se4,5.599808841120366
Zn1 Mo3,9.566966052710317
Zn1 N1,5.434306538840907
Zn1 N1 F3,3.54957837564461
Zn1 N2 F4,2.594226038833136
Zn1 Ni1,5.394742547252879
Zn1 Ni1 Au2,1.0236076029344512
Zn1 Ni1 F6,3.910566106992549
Zn1 Ni1 Pd2,0.7664046427522234
Zn1 Ni1 Sb1,7.765793246542414
Zn1 Ni2 Ge1,8.64702028791519
Zn1 Ni2 N2,5.611715063898337
Zn1 Ni3,8.778378869010538
Zn1 Ni3 C1,7.879495611203689
Zn1 Ni3 N1,7.977919887395712
Zn1 Ni3 Sb2,8.50091371956683
Zn1 Ni4,8.863996152976506
Zn1 O1,5.187921382527267
Zn1 O2,4.69455051478437
Zn1 Os1,14.909755412047351
Zn1 Os1 O3,8.520269119854007
Zn1 Os3,18.502899363455107
Zn1 P1,4.046572149805696
Zn1 P1 Pd5,9.77467275925032
Zn1 P1 Pt5,16.482317830310176
Zn1 Pb1 F6,5.320585092093119
Zn1 Pb2 N2,7.786026014891783
Zn1 Pb3,9.894439899263189
Zn1 Pd1,9.82883490567103
Zn1 Pd1 F6,4.552367467931457
Zn1 Pd2,10.30550749100813
Zn1 Pd2 Au1,12.422599156534114
Zn1 Pd3,10.507196318551555
Zn1 Pd4,10.747935391301072
Zn1 Pd5 Se1,9.905246734136814
Zn1 Pt1,14.742532793434467
Zn1 Pt1 F6,5.875431724312173
Zn1 Pt3,17.715707487127727
Zn1 Re1,14.21395190382892
Zn1 Re1 O4,7.649351327369402
Zn1 Rh1,10.04279087405066
Zn1 Rh1 F6,4.467920110443472
Zn1 Rh1 O3,6.096070583751542
Zn1 Rh3,11.030016892521903
Zn1 Ru2 W1,12.952692026984948
Zn1 S1,3.995112496513155
Zn1 S1 O4,2.20966573339221
Zn1 Sb1 F6,3.961875586906323
Zn1 Sb1 Ru2,0.7855628296683416
Zn1 Sb2,6.638519083631066
Zn1 Sb3,7.052033843493278
Zn1 Se1,4.681030279805861
Zn1 Si1 As1 P1,4.002503601696096
Zn1 Si1 As2,4.467806833365181
Zn1 Si1 Ir2,1.110928844170511
Zn1 Si1 Ni2,7.520011429301635
Zn1 Si1 O3,5.286241207400336
Zn1 Si1 P2,3.333168040840155
Zn1 Si1 Rh2,9.304990897439575
Zn1 Si1 Ru2,0.6892295951290208
Zn1 Si1 Tc2,0.6329447535369083
Zn1 Si3,4.066329210619619
Zn1 Sn1 As2,5.256554736089127
Zn1 Sn1 F6,4.2809928050429535
Zn1 Sn1 O3,5.893869473325446
Zn1 Sn1 P2,4.387934014149055
Zn1 Sn1 Rh2,0.7837020423732679
Zn1 Sn1 Sb2,5.409441496111208
Zn1 Sn2 N2,6.062000871825286
Zn1 Sn3,6.8610111301473
Zn1 Tc1 Mo1,8.029792172803987
Zn1 Te1,5.409812101576192
Zn1 Te2,6.747026259379396
Zn1 W1 F6,4.895983725471595
Zn1 W1 O3,7.5872522044252415
Zn1 W2 N2,10.077796918135284
Zn1 W2 Se4,7.2932510792014
Zn2 Ag1 Au1,11.010695862402583
Zn2 Ag1 Ir1,0.8705913612625363
Zn2 Ag1 Pd1,0.7004222826527714
Zn2 Ag1 Pt1,0.8851367921546309
Zn2 Ag1 Rh1,0.6869486120981997
Zn2 As1,3.898552023540759
Zn2 Cd1 N2,7.074335633439435
Zn2 Co1 Cu1,0.6013173871479325
Zn2 Co1 S3,4.151264279311818
Zn2 Cu1 Au1,10.997999743678267
Zn2 Cu1 Ir1,11.769252112129392
Zn2 Cu1 Ni1,8.380117263051327
Zn2 Cu1 Pd1,0.7732405511453069
Zn2 Cu1 Pt1,11.559208036592024
Zn2 Cu1 Rh1,0.7287712636293421
Zn2 Fe1 S3,3.912568745042419
Zn2 Ga1 Ag1 Se4,5.195395569785808
Zn2 Ga1 Cu1 Se4,5.0731944654757095
Zn2 Ga1 Cu1 Te4,5.582949297035901
Zn2 Ga1 Se4,4.9721250386328855
Zn2 Ga2 S5,3.855884324288197
Zn2 Ge1 S3,3.664880990301772
Zn2 Ge1 S4,3.606455230485162
Zn2 Ge1 Se4,4.8143043642853165
Zn2 In1 Ag1 Te4,5.556380657282835
Zn2 In1 Cu1 S4,4.340781803511167
Zn2 In1 Cu1 Se4,5.313536937770767
Zn2 In1 Cu1 Te4,5.611507582829014
Zn2 In1 N2,6.694505934849717
Zn2 In2 S5,4.15267421458475
Zn2 Ir1 Au1,1.0768429332321223
Zn2 Ir1 Pd1,0.9722247674816588
Zn2 Ir1 Pt1,1.133123048798407
Zn2 Ir1 Rh1,0.9607291480508264
Zn2 Ni1 Ir1,12.029322453979397
Zn2 Ni1 O3,6.615378290226187
Zn2 Ni1 Pt1,1.212705704912783
Zn2 Ni1 Rh1,9.341955989572806
Zn2 P1,3.618545332244563
Zn2 Pd1 Au1,11.723477490134188
Zn2 Pd1 Pt1,12.301790762995257
Zn2 Pd1 Rh1,10.032886993285576
Zn2 Pt1 Au1,1.1036827152408393
Zn2 Pt1 Rh1,12.52448578541917
Zn2 Rh1 Au1,12.010804332288451
Zn2 Se1 S1,4.579340384813567
Zn2 Si2 As1 P3,3.676285209200566
Zn2 Si2 As3 P1,4.275559888794046
Zn2 Te1 O1,5.632708263064309
Zn2 Te1 Se1,5.265392322054737